# vtk DataFile Version 2.0
./output/static_plastic_von_mises_truss/static_plastic_von_mises_truss_0188.vtk
ASCII
DATASET UNSTRUCTURED_GRID

POINTS 40 float
       2.498592e-03      -3.535534e-03      -2.501407e-03 
       2.498592e-03       3.535534e-03      -2.501407e-03 
      -2.498592e-03       3.535534e-03       2.501407e-03 
      -2.498592e-03      -3.535534e-03       2.501407e-03 
       1.002499e+00      -3.535534e-03       9.963733e-01 
       1.002499e+00       3.535534e-03       9.963733e-01 
       9.975014e-01       3.535534e-03       1.001376e+00 
       9.975014e-01      -3.535534e-03       1.001376e+00 
       3.533543e-03       0.000000e+00      -3.537524e-03 
       0.000000e+00       5.000000e-03       0.000000e+00 
      -3.533543e-03       0.000000e+00       3.537524e-03 
       0.000000e+00      -5.000000e-03       0.000000e+00 
       1.003534e+00       0.000000e+00       9.953371e-01 
       1.000000e+00       5.000000e-03       9.988747e-01 
       9.964665e-01       0.000000e+00       1.002412e+00 
       1.000000e+00      -5.000000e-03       9.988747e-01 
       5.024986e-01      -3.535534e-03       4.969359e-01 
       5.024986e-01       3.535534e-03       4.969359e-01 
       4.975014e-01       3.535534e-03       5.019387e-01 
       4.975014e-01      -3.535534e-03       5.019387e-01 
       9.975014e-01      -3.535534e-03       9.963733e-01 
       9.975014e-01       3.535534e-03       9.963733e-01 
       1.002499e+00       3.535534e-03       1.001376e+00 
       1.002499e+00      -3.535534e-03       1.001376e+00 
       1.997501e+00      -3.535534e-03      -2.501407e-03 
       1.997501e+00       3.535534e-03      -2.501407e-03 
       2.002499e+00       3.535534e-03       2.501407e-03 
       2.002499e+00      -3.535534e-03       2.501407e-03 
       9.964665e-01       0.000000e+00       9.953371e-01 
       1.000000e+00       5.000000e-03       9.988747e-01 
       1.003534e+00       0.000000e+00       1.002412e+00 
       1.000000e+00      -5.000000e-03       9.988747e-01 
       1.996466e+00       0.000000e+00      -3.537524e-03 
       2.000000e+00       5.000000e-03       0.000000e+00 
       2.003534e+00       0.000000e+00       3.537524e-03 
       2.000000e+00      -5.000000e-03       0.000000e+00 
       1.497501e+00      -3.535534e-03       4.969359e-01 
       1.497501e+00       3.535534e-03       4.969359e-01 
       1.502499e+00       3.535534e-03       5.019387e-01 
       1.502499e+00      -3.535534e-03       5.019387e-01 

CELLS 2 42
20 0 1 2 3 4 5 6 7 8 9 10 11 12 13 14 15 16 17 18 19 
20 20 21 22 23 24 25 26 27 28 29 30 31 32 33 34 35 36 37 38 39 

CELL_TYPES 2
 25
 25

POINT_DATA        40 
VECTORS Displacements float
      -1.40786284e-06       0.00000000e+00      -1.40707045e-06 
      -1.40786284e-06       0.00000000e+00      -1.40707045e-06 
       1.40786284e-06       0.00000000e+00       1.40707045e-06 
       1.40786284e-06       0.00000000e+00       1.40707045e-06 
      -1.40786284e-06       0.00000000e+00      -1.12674701e-03 
      -1.40786284e-06       0.00000000e+00      -1.12674701e-03 
       1.40786284e-06       0.00000000e+00      -1.12393287e-03 
       1.40786284e-06       0.00000000e+00      -1.12393287e-03 
      -1.99101872e-06       0.00000000e+00      -1.98989811e-06 
       0.00000000e+00       0.00000000e+00       0.00000000e+00 
       1.99101872e-06       0.00000000e+00       1.98989811e-06 
       0.00000000e+00       0.00000000e+00       0.00000000e+00 
      -1.99101872e-06       0.00000000e+00      -1.12732984e-03 
      -1.11022302e-16       0.00000000e+00      -1.12533994e-03 
       1.99101872e-06       0.00000000e+00      -1.12335004e-03 
      -1.11022302e-16       0.00000000e+00      -1.12533994e-03 
      -1.40786284e-06       0.00000000e+00      -5.64077041e-04 
      -1.40786284e-06       0.00000000e+00      -5.64077041e-04 
       1.40786284e-06       0.00000000e+00      -5.61262900e-04 
       1.40786284e-06       0.00000000e+00      -5.61262900e-04 
       1.40786284e-06       0.00000000e+00      -1.12674701e-03 
       1.40786284e-06       0.00000000e+00      -1.12674701e-03 
      -1.40786284e-06       0.00000000e+00      -1.12393287e-03 
      -1.40786284e-06       0.00000000e+00      -1.12393287e-03 
       1.40786284e-06       0.00000000e+00      -1.40707045e-06 
       1.40786284e-06       0.00000000e+00      -1.40707045e-06 
      -1.40786284e-06       0.00000000e+00       1.40707045e-06 
      -1.40786284e-06       0.00000000e+00       1.40707045e-06 
       1.99101872e-06       0.00000000e+00      -1.12732984e-03 
       0.00000000e+00       0.00000000e+00      -1.12533994e-03 
      -1.99101872e-06       0.00000000e+00      -1.12335004e-03 
       0.00000000e+00       0.00000000e+00      -1.12533994e-03 
       1.99101872e-06       0.00000000e+00      -1.98989811e-06 
       0.00000000e+00       0.00000000e+00       0.00000000e+00 
      -1.99101872e-06       0.00000000e+00       1.98989811e-06 
       0.00000000e+00       0.00000000e+00       0.00000000e+00 
       1.40786284e-06       0.00000000e+00      -5.64077041e-04 
       1.40786284e-06       0.00000000e+00      -5.64077041e-04 
      -1.40786284e-06       0.00000000e+00      -5.61262900e-04 
      -1.40786284e-06       0.00000000e+00      -5.61262900e-04 

