# vtk DataFile Version 2.0
./output/static_plastic_von_mises_truss/static_plastic_von_mises_truss_0134.vtk
ASCII
DATASET UNSTRUCTURED_GRID

POINTS 40 float
       2.499385e-03      -3.535534e-03      -2.500615e-03 
       2.499385e-03       3.535534e-03      -2.500615e-03 
      -2.499385e-03       3.535534e-03       2.500615e-03 
      -2.499385e-03      -3.535534e-03       2.500615e-03 
       1.002499e+00      -3.535534e-03       9.970076e-01 
       1.002499e+00       3.535534e-03       9.970076e-01 
       9.975006e-01       3.535534e-03       1.002009e+00 
       9.975006e-01      -3.535534e-03       1.002009e+00 
       3.534664e-03       0.000000e+00      -3.536403e-03 
       0.000000e+00       5.000000e-03       0.000000e+00 
      -3.534664e-03       0.000000e+00       3.536403e-03 
       0.000000e+00      -5.000000e-03       0.000000e+00 
       1.003535e+00       0.000000e+00       9.959718e-01 
       1.000000e+00       5.000000e-03       9.995082e-01 
       9.964653e-01       0.000000e+00       1.003045e+00 
       1.000000e+00      -5.000000e-03       9.995082e-01 
       5.024994e-01      -3.535534e-03       4.972535e-01 
       5.024994e-01       3.535534e-03       4.972535e-01 
       4.975006e-01       3.535534e-03       5.022547e-01 
       4.975006e-01      -3.535534e-03       5.022547e-01 
       9.975006e-01      -3.535534e-03       9.970076e-01 
       9.975006e-01       3.535534e-03       9.970076e-01 
       1.002499e+00       3.535534e-03       1.002009e+00 
       1.002499e+00      -3.535534e-03       1.002009e+00 
       1.997501e+00      -3.535534e-03      -2.500615e-03 
       1.997501e+00       3.535534e-03      -2.500615e-03 
       2.002499e+00       3.535534e-03       2.500615e-03 
       2.002499e+00      -3.535534e-03       2.500615e-03 
       9.964653e-01       0.000000e+00       9.959718e-01 
       1.000000e+00       5.000000e-03       9.995082e-01 
       1.003535e+00       0.000000e+00       1.003045e+00 
       1.000000e+00      -5.000000e-03       9.995082e-01 
       1.996465e+00       0.000000e+00      -3.536403e-03 
       2.000000e+00       5.000000e-03       0.000000e+00 
       2.003535e+00       0.000000e+00       3.536403e-03 
       2.000000e+00      -5.000000e-03       0.000000e+00 
       1.497501e+00      -3.535534e-03       4.972535e-01 
       1.497501e+00       3.535534e-03       4.972535e-01 
       1.502499e+00       3.535534e-03       5.022547e-01 
       1.502499e+00      -3.535534e-03       5.022547e-01 

CELLS 2 42
20 0 1 2 3 4 5 6 7 8 9 10 11 12 13 14 15 16 17 18 19 
20 20 21 22 23 24 25 26 27 28 29 30 31 32 33 34 35 36 37 38 39 

CELL_TYPES 2
 25
 25

POINT_DATA        40 
VECTORS Displacements float
      -6.14948640e-07       4.33680869e-19      -6.14797412e-07 
      -6.14948640e-07      -4.33680869e-19      -6.14797412e-07 
       6.14948640e-07      -4.33680869e-19       6.14797412e-07 
       6.14948640e-07       4.33680869e-19       6.14797412e-07 
      -6.14948640e-07       4.33680869e-19      -4.92392281e-04 
      -6.14948640e-07      -4.33680869e-19      -4.92392281e-04 
       6.14948640e-07      -4.33680869e-19      -4.91162686e-04 
       6.14948640e-07       4.33680869e-19      -4.91162686e-04 
      -8.69668707e-07       0.00000000e+00      -8.69454839e-07 
       0.00000000e+00      -8.67361738e-19       0.00000000e+00 
       8.69668707e-07       0.00000000e+00       8.69454839e-07 
       0.00000000e+00       8.67361738e-19       0.00000000e+00 
      -8.69668707e-07       0.00000000e+00      -4.92646938e-04 
       0.00000000e+00      -8.67361738e-19      -4.91777483e-04 
       8.69668707e-07       0.00000000e+00      -4.90908029e-04 
       0.00000000e+00       8.67361738e-19      -4.91777483e-04 
      -6.14948640e-07       4.33680869e-19      -2.46503539e-04 
      -6.14948640e-07      -4.33680869e-19      -2.46503539e-04 
       6.14948640e-07      -4.33680869e-19      -2.45273944e-04 
       6.14948640e-07       4.33680869e-19      -2.45273944e-04 
       6.14948640e-07       4.33680869e-19      -4.92392281e-04 
       6.14948640e-07      -4.33680869e-19      -4.92392281e-04 
      -6.14948640e-07      -4.33680869e-19      -4.91162686e-04 
      -6.14948640e-07       4.33680869e-19      -4.91162686e-04 
       6.14948640e-07       4.33680869e-19      -6.14797412e-07 
       6.14948640e-07      -4.33680869e-19      -6.14797412e-07 
      -6.14948640e-07      -4.33680869e-19       6.14797412e-07 
      -6.14948640e-07       4.33680869e-19       6.14797412e-07 
       8.69668707e-07       0.00000000e+00      -4.92646938e-04 
       0.00000000e+00      -8.67361738e-19      -4.91777483e-04 
      -8.69668707e-07       0.00000000e+00      -4.90908029e-04 
       0.00000000e+00       8.67361738e-19      -4.91777483e-04 
       8.69668707e-07       0.00000000e+00      -8.69454839e-07 
       0.00000000e+00      -8.67361738e-19       0.00000000e+00 
      -8.69668706e-07       0.00000000e+00       8.69454839e-07 
       0.00000000e+00       8.67361738e-19       0.00000000e+00 
       6.14948640e-07       4.33680869e-19      -2.46503539e-04 
       6.14948640e-07      -4.33680869e-19      -2.46503539e-04 
      -6.14948640e-07      -4.33680869e-19      -2.45273944e-04 
      -6.14948640e-07       4.33680869e-19      -2.45273944e-04 

