# vtk DataFile Version 2.0
./output/static_plastic_von_mises_truss/static_plastic_von_mises_truss_0225.vtk
ASCII
DATASET UNSTRUCTURED_GRID

POINTS 40 float
       2.505176e-03      -3.535534e-03      -2.494813e-03 
       2.505176e-03       3.535534e-03      -2.494813e-03 
      -2.505176e-03       3.535534e-03       2.494813e-03 
      -2.505176e-03      -3.535534e-03       2.494813e-03 
       1.002505e+00      -3.535534e-03       1.001659e+00 
       1.002505e+00       3.535534e-03       1.001659e+00 
       9.974948e-01       3.535534e-03       1.006649e+00 
       9.974948e-01      -3.535534e-03       1.006649e+00 
       3.542854e-03       0.000000e+00      -3.528198e-03 
       0.000000e+00       5.000000e-03       0.000000e+00 
      -3.542854e-03       0.000000e+00       3.528198e-03 
       0.000000e+00      -5.000000e-03       0.000000e+00 
       1.003543e+00       0.000000e+00       1.000626e+00 
       1.000000e+00       5.000000e-03       1.004154e+00 
       9.964571e-01       0.000000e+00       1.007682e+00 
       1.000000e+00      -5.000000e-03       1.004154e+00 
       5.025052e-01      -3.535534e-03       4.995822e-01 
       5.025052e-01       3.535534e-03       4.995822e-01 
       4.974948e-01       3.535534e-03       5.045718e-01 
       4.974948e-01      -3.535534e-03       5.045718e-01 
       9.974948e-01      -3.535534e-03       1.001659e+00 
       9.974948e-01       3.535534e-03       1.001659e+00 
       1.002505e+00       3.535534e-03       1.006649e+00 
       1.002505e+00      -3.535534e-03       1.006649e+00 
       1.997495e+00      -3.535534e-03      -2.494813e-03 
       1.997495e+00       3.535534e-03      -2.494813e-03 
       2.002505e+00       3.535534e-03       2.494813e-03 
       2.002505e+00      -3.535534e-03       2.494813e-03 
       9.964571e-01       0.000000e+00       1.000626e+00 
       1.000000e+00       5.000000e-03       1.004154e+00 
       1.003543e+00       0.000000e+00       1.007682e+00 
       1.000000e+00      -5.000000e-03       1.004154e+00 
       1.996457e+00       0.000000e+00      -3.528198e-03 
       2.000000e+00       5.000000e-03       0.000000e+00 
       2.003543e+00       0.000000e+00       3.528198e-03 
       2.000000e+00      -5.000000e-03       0.000000e+00 
       1.497495e+00      -3.535534e-03       4.995822e-01 
       1.497495e+00       3.535534e-03       4.995822e-01 
       1.502505e+00       3.535534e-03       5.045718e-01 
       1.502505e+00      -3.535534e-03       5.045718e-01 

CELLS 2 42
20 0 1 2 3 4 5 6 7 8 9 10 11 12 13 14 15 16 17 18 19 
20 20 21 22 23 24 25 26 27 28 29 30 31 32 33 34 35 36 37 38 39 

CELL_TYPES 2
 25
 25

POINT_DATA        40 
VECTORS Displacements float
       5.17641669e-06       8.67361738e-19       5.18715707e-06 
       5.17641669e-06      -8.67361738e-19       5.18715707e-06 
      -5.17641669e-06      -8.67361738e-19      -5.18715707e-06 
      -5.17641669e-06       8.67361738e-19      -5.18715707e-06 
       5.17641669e-06       8.67361738e-19       4.15923574e-03 
       5.17641669e-06      -8.67361738e-19       4.15923574e-03 
      -5.17641669e-06      -8.67361738e-19       4.14886143e-03 
      -5.17641669e-06       8.67361738e-19       4.14886143e-03 
       7.32055869e-06       0.00000000e+00       7.33574787e-06 
       0.00000000e+00      -8.67361738e-19       0.00000000e+00 
      -7.32055869e-06       0.00000000e+00      -7.33574787e-06 
       0.00000000e+00       8.67361738e-19       0.00000000e+00 
       7.32055869e-06       0.00000000e+00       4.16138433e-03 
       0.00000000e+00      -8.67361738e-19       4.15404858e-03 
      -7.32055869e-06       0.00000000e+00       4.14671284e-03 
       0.00000000e+00       8.67361738e-19       4.15404858e-03 
       5.17641669e-06       8.67361738e-19       2.08221145e-03 
       5.17641669e-06      -8.67361738e-19       2.08221145e-03 
      -5.17641669e-06      -8.67361738e-19       2.07183713e-03 
      -5.17641669e-06       8.67361738e-19       2.07183713e-03 
      -5.17641669e-06       8.67361738e-19       4.15923574e-03 
      -5.17641669e-06      -8.67361738e-19       4.15923574e-03 
       5.17641669e-06      -8.67361738e-19       4.14886143e-03 
       5.17641669e-06       8.67361738e-19       4.14886143e-03 
      -5.17641669e-06       8.67361738e-19       5.18715707e-06 
      -5.17641669e-06      -8.67361738e-19       5.18715707e-06 
       5.17641669e-06      -8.67361738e-19      -5.18715707e-06 
       5.17641669e-06       8.67361738e-19      -5.18715707e-06 
      -7.32055869e-06       0.00000000e+00       4.16138433e-03 
       0.00000000e+00      -8.67361738e-19       4.15404858e-03 
       7.32055869e-06       0.00000000e+00       4.14671284e-03 
       0.00000000e+00       8.67361738e-19       4.15404858e-03 
      -7.32055869e-06       0.00000000e+00       7.33574787e-06 
       0.00000000e+00      -8.67361738e-19       0.00000000e+00 
       7.32055869e-06       0.00000000e+00      -7.33574787e-06 
       0.00000000e+00       8.67361738e-19       0.00000000e+00 
      -5.17641669e-06       8.67361738e-19       2.08221145e-03 
      -5.17641669e-06      -8.67361738e-19       2.08221145e-03 
       5.17641669e-06      -8.67361738e-19       2.07183713e-03 
       5.17641669e-06       8.67361738e-19       2.07183713e-03 

