# vtk DataFile Version 2.0
./output/static_plastic_von_mises_truss/static_plastic_von_mises_truss_0197.vtk
ASCII
DATASET UNSTRUCTURED_GRID

POINTS 40 float
       2.499383e-03      -3.535534e-03      -2.500617e-03 
       2.499383e-03       3.535534e-03      -2.500617e-03 
      -2.499383e-03       3.535534e-03       2.500617e-03 
      -2.499383e-03      -3.535534e-03       2.500617e-03 
       1.002499e+00      -3.535534e-03       9.970058e-01 
       1.002499e+00       3.535534e-03       9.970058e-01 
       9.975006e-01       3.535534e-03       1.002007e+00 
       9.975006e-01      -3.535534e-03       1.002007e+00 
       3.534661e-03       0.000000e+00      -3.536406e-03 
       0.000000e+00       5.000000e-03       0.000000e+00 
      -3.534661e-03       0.000000e+00       3.536406e-03 
       0.000000e+00      -5.000000e-03       0.000000e+00 
       1.003535e+00       0.000000e+00       9.959701e-01 
       1.000000e+00       5.000000e-03       9.995065e-01 
       9.964653e-01       0.000000e+00       1.003043e+00 
       1.000000e+00      -5.000000e-03       9.995065e-01 
       5.024994e-01      -3.535534e-03       4.972526e-01 
       5.024994e-01       3.535534e-03       4.972526e-01 
       4.975006e-01       3.535534e-03       5.022538e-01 
       4.975006e-01      -3.535534e-03       5.022538e-01 
       9.975006e-01      -3.535534e-03       9.970058e-01 
       9.975006e-01       3.535534e-03       9.970058e-01 
       1.002499e+00       3.535534e-03       1.002007e+00 
       1.002499e+00      -3.535534e-03       1.002007e+00 
       1.997501e+00      -3.535534e-03      -2.500617e-03 
       1.997501e+00       3.535534e-03      -2.500617e-03 
       2.002499e+00       3.535534e-03       2.500617e-03 
       2.002499e+00      -3.535534e-03       2.500617e-03 
       9.964653e-01       0.000000e+00       9.959701e-01 
       1.000000e+00       5.000000e-03       9.995065e-01 
       1.003535e+00       0.000000e+00       1.003043e+00 
       1.000000e+00      -5.000000e-03       9.995065e-01 
       1.996465e+00       0.000000e+00      -3.536406e-03 
       2.000000e+00       5.000000e-03       0.000000e+00 
       2.003535e+00       0.000000e+00       3.536406e-03 
       2.000000e+00      -5.000000e-03       0.000000e+00 
       1.497501e+00      -3.535534e-03       4.972526e-01 
       1.497501e+00       3.535534e-03       4.972526e-01 
       1.502499e+00       3.535534e-03       5.022538e-01 
       1.502499e+00      -3.535534e-03       5.022538e-01 

CELLS 2 42
20 0 1 2 3 4 5 6 7 8 9 10 11 12 13 14 15 16 17 18 19 
20 20 21 22 23 24 25 26 27 28 29 30 31 32 33 34 35 36 37 38 39 

CELL_TYPES 2
 25
 25

POINT_DATA        40 
VECTORS Displacements float
      -6.17147283e-07       0.00000000e+00      -6.16994973e-07 
      -6.17147283e-07       0.00000000e+00      -6.16994973e-07 
       6.17147283e-07       0.00000000e+00       6.16994973e-07 
       6.17147283e-07       0.00000000e+00       6.16994973e-07 
      -6.17147283e-07       0.00000000e+00      -4.94152094e-04 
      -6.17147283e-07       0.00000000e+00      -4.94152094e-04 
       6.17147283e-07       0.00000000e+00      -4.92918104e-04 
       6.17147283e-07       0.00000000e+00      -4.92918104e-04 
      -8.72778058e-07       0.00000000e+00      -8.72562658e-07 
       0.00000000e+00       0.00000000e+00       0.00000000e+00 
       8.72778058e-07       0.00000000e+00       8.72562658e-07 
       0.00000000e+00       0.00000000e+00       0.00000000e+00 
      -8.72778058e-07       0.00000000e+00      -4.94407662e-04 
       0.00000000e+00       0.00000000e+00      -4.93535099e-04 
       8.72778058e-07       0.00000000e+00      -4.92662536e-04 
       0.00000000e+00       0.00000000e+00      -4.93535099e-04 
      -6.17147283e-07       0.00000000e+00      -2.47384544e-04 
      -6.17147283e-07       0.00000000e+00      -2.47384544e-04 
       6.17147283e-07       0.00000000e+00      -2.46150555e-04 
       6.17147283e-07       0.00000000e+00      -2.46150555e-04 
       6.17147283e-07       0.00000000e+00      -4.94152094e-04 
       6.17147283e-07       0.00000000e+00      -4.94152094e-04 
      -6.17147283e-07       0.00000000e+00      -4.92918104e-04 
      -6.17147283e-07       0.00000000e+00      -4.92918104e-04 
       6.17147283e-07       0.00000000e+00      -6.16994973e-07 
       6.17147283e-07       0.00000000e+00      -6.16994973e-07 
      -6.17147283e-07       0.00000000e+00       6.16994973e-07 
      -6.17147283e-07       0.00000000e+00       6.16994973e-07 
       8.72778058e-07       0.00000000e+00      -4.94407662e-04 
       0.00000000e+00       0.00000000e+00      -4.93535099e-04 
      -8.72778058e-07       0.00000000e+00      -4.92662536e-04 
       0.00000000e+00       0.00000000e+00      -4.93535099e-04 
       8.72778058e-07       0.00000000e+00      -8.72562659e-07 
       0.00000000e+00       0.00000000e+00       0.00000000e+00 
      -8.72778058e-07       0.00000000e+00       8.72562658e-07 
       0.00000000e+00       0.00000000e+00       0.00000000e+00 
       6.17147283e-07       0.00000000e+00      -2.47384544e-04 
       6.17147283e-07       0.00000000e+00      -2.47384544e-04 
      -6.17147283e-07       0.00000000e+00      -2.46150555e-04 
      -6.17147283e-07       0.00000000e+00      -2.46150555e-04 

