# vtk DataFile Version 2.0
./output/static_plastic_von_mises_truss/static_plastic_von_mises_truss_0139.vtk
ASCII
DATASET UNSTRUCTURED_GRID

POINTS 40 float
       2.498953e-03      -3.535534e-03      -2.501047e-03 
       2.498953e-03       3.535534e-03      -2.501047e-03 
      -2.498953e-03       3.535534e-03       2.501047e-03 
      -2.498953e-03      -3.535534e-03       2.501047e-03 
       1.002499e+00      -3.535534e-03       9.966618e-01 
       1.002499e+00       3.535534e-03       9.966618e-01 
       9.975010e-01       3.535534e-03       1.001664e+00 
       9.975010e-01      -3.535534e-03       1.001664e+00 
       3.534053e-03       0.000000e+00      -3.537014e-03 
       0.000000e+00       5.000000e-03       0.000000e+00 
      -3.534053e-03       0.000000e+00       3.537014e-03 
       0.000000e+00      -5.000000e-03       0.000000e+00 
       1.003534e+00       0.000000e+00       9.956258e-01 
       1.000000e+00       5.000000e-03       9.991628e-01 
       9.964659e-01       0.000000e+00       1.002700e+00 
       1.000000e+00      -5.000000e-03       9.991628e-01 
       5.024990e-01      -3.535534e-03       4.970804e-01 
       5.024990e-01       3.535534e-03       4.970804e-01 
       4.975010e-01       3.535534e-03       5.020824e-01 
       4.975010e-01      -3.535534e-03       5.020824e-01 
       9.975010e-01      -3.535534e-03       9.966618e-01 
       9.975010e-01       3.535534e-03       9.966618e-01 
       1.002499e+00       3.535534e-03       1.001664e+00 
       1.002499e+00      -3.535534e-03       1.001664e+00 
       1.997501e+00      -3.535534e-03      -2.501047e-03 
       1.997501e+00       3.535534e-03      -2.501047e-03 
       2.002499e+00       3.535534e-03       2.501047e-03 
       2.002499e+00      -3.535534e-03       2.501047e-03 
       9.964659e-01       0.000000e+00       9.956258e-01 
       1.000000e+00       5.000000e-03       9.991628e-01 
       1.003534e+00       0.000000e+00       1.002700e+00 
       1.000000e+00      -5.000000e-03       9.991628e-01 
       1.996466e+00       0.000000e+00      -3.537014e-03 
       2.000000e+00       5.000000e-03       1.110223e-16 
       2.003534e+00       0.000000e+00       3.537014e-03 
       2.000000e+00      -5.000000e-03       1.110223e-16 
       1.497501e+00      -3.535534e-03       4.970804e-01 
       1.497501e+00       3.535534e-03       4.970804e-01 
       1.502499e+00       3.535534e-03       5.020824e-01 
       1.502499e+00      -3.535534e-03       5.020824e-01 

CELLS 2 42
20 0 1 2 3 4 5 6 7 8 9 10 11 12 13 14 15 16 17 18 19 
20 20 21 22 23 24 25 26 27 28 29 30 31 32 33 34 35 36 37 38 39 

CELL_TYPES 2
 25
 25

POINT_DATA        40 
VECTORS Displacements float
      -1.04715741e-06       0.00000000e+00      -1.04671898e-06 
      -1.04715741e-06       0.00000000e+00      -1.04671898e-06 
       1.04715741e-06       0.00000000e+00       1.04671898e-06 
       1.04715741e-06       0.00000000e+00       1.04671898e-06 
      -1.04715741e-06       0.00000000e+00      -8.38246750e-04 
      -1.04715741e-06       0.00000000e+00      -8.38246750e-04 
       1.04715741e-06       0.00000000e+00      -8.36153312e-04 
       1.04715741e-06       0.00000000e+00      -8.36153312e-04 
      -1.48090421e-06       0.00000000e+00      -1.48028418e-06 
       0.00000000e+00       0.00000000e+00       0.00000000e+00 
       1.48090421e-06       0.00000000e+00       1.48028418e-06 
       0.00000000e+00       0.00000000e+00       0.00000000e+00 
      -1.48090421e-06       0.00000000e+00      -8.38680316e-04 
       0.00000000e+00       0.00000000e+00      -8.37200031e-04 
       1.48090421e-06       0.00000000e+00      -8.35719747e-04 
       0.00000000e+00       0.00000000e+00      -8.37200031e-04 
      -1.04715741e-06       0.00000000e+00      -4.19646735e-04 
      -1.04715741e-06       0.00000000e+00      -4.19646735e-04 
       1.04715741e-06       0.00000000e+00      -4.17553297e-04 
       1.04715741e-06       0.00000000e+00      -4.17553297e-04 
       1.04715741e-06       0.00000000e+00      -8.38246750e-04 
       1.04715741e-06       0.00000000e+00      -8.38246750e-04 
      -1.04715741e-06       0.00000000e+00      -8.36153312e-04 
      -1.04715741e-06       0.00000000e+00      -8.36153312e-04 
       1.04715741e-06       0.00000000e+00      -1.04671898e-06 
       1.04715741e-06       0.00000000e+00      -1.04671898e-06 
      -1.04715741e-06       0.00000000e+00       1.04671898e-06 
      -1.04715741e-06       0.00000000e+00       1.04671898e-06 
       1.48090421e-06       0.00000000e+00      -8.38680316e-04 
       0.00000000e+00       0.00000000e+00      -8.37200031e-04 
      -1.48090421e-06       0.00000000e+00      -8.35719747e-04 
       0.00000000e+00       0.00000000e+00      -8.37200031e-04 
       1.48090421e-06       0.00000000e+00      -1.48028418e-06 
       0.00000000e+00       0.00000000e+00       1.11022302e-16 
      -1.48090421e-06       0.00000000e+00       1.48028418e-06 
       0.00000000e+00       0.00000000e+00       1.11022302e-16 
       1.04715741e-06       0.00000000e+00      -4.19646735e-04 
       1.04715741e-06       0.00000000e+00      -4.19646735e-04 
      -1.04715741e-06       0.00000000e+00      -4.17553297e-04 
      -1.04715741e-06       0.00000000e+00      -4.17553297e-04 

