# vtk DataFile Version 2.0
./output/static_plastic_von_mises_truss/static_plastic_von_mises_truss_0236.vtk
ASCII
DATASET UNSTRUCTURED_GRID

POINTS 40 float
       2.504209e-03      -3.535534e-03      -2.495784e-03 
       2.504209e-03       3.535534e-03      -2.495784e-03 
      -2.504209e-03       3.535534e-03       2.495784e-03 
      -2.504209e-03      -3.535534e-03       2.495784e-03 
       1.002504e+00      -3.535534e-03       1.000880e+00 
       1.002504e+00       3.535534e-03       1.000880e+00 
       9.974958e-01       3.535534e-03       1.005872e+00 
       9.974958e-01      -3.535534e-03       1.005872e+00 
       3.541487e-03       0.000000e+00      -3.529571e-03 
       0.000000e+00       5.000000e-03       0.000000e+00 
      -3.541487e-03       0.000000e+00       3.529571e-03 
       0.000000e+00      -5.000000e-03       0.000000e+00 
       1.003541e+00       0.000000e+00       9.998463e-01 
       1.000000e+00       5.000000e-03       1.003376e+00 
       9.964585e-01       0.000000e+00       1.006905e+00 
       1.000000e+00      -5.000000e-03       1.003376e+00 
       5.025042e-01      -3.535534e-03       4.991922e-01 
       5.025042e-01       3.535534e-03       4.991922e-01 
       4.974958e-01       3.535534e-03       5.041837e-01 
       4.974958e-01      -3.535534e-03       5.041837e-01 
       9.974958e-01      -3.535534e-03       1.000880e+00 
       9.974958e-01       3.535534e-03       1.000880e+00 
       1.002504e+00       3.535534e-03       1.005872e+00 
       1.002504e+00      -3.535534e-03       1.005872e+00 
       1.997496e+00      -3.535534e-03      -2.495784e-03 
       1.997496e+00       3.535534e-03      -2.495784e-03 
       2.002504e+00       3.535534e-03       2.495784e-03 
       2.002504e+00      -3.535534e-03       2.495784e-03 
       9.964585e-01       0.000000e+00       9.998463e-01 
       1.000000e+00       5.000000e-03       1.003376e+00 
       1.003541e+00       0.000000e+00       1.006905e+00 
       1.000000e+00      -5.000000e-03       1.003376e+00 
       1.996459e+00       0.000000e+00      -3.529571e-03 
       2.000000e+00       5.000000e-03       0.000000e+00 
       2.003541e+00       0.000000e+00       3.529571e-03 
       2.000000e+00      -5.000000e-03       0.000000e+00 
       1.497496e+00      -3.535534e-03       4.991922e-01 
       1.497496e+00       3.535534e-03       4.991922e-01 
       1.502504e+00       3.535534e-03       5.041837e-01 
       1.502504e+00      -3.535534e-03       5.041837e-01 

CELLS 2 42
20 0 1 2 3 4 5 6 7 8 9 10 11 12 13 14 15 16 17 18 19 
20 20 21 22 23 24 25 26 27 28 29 30 31 32 33 34 35 36 37 38 39 

CELL_TYPES 2
 25
 25

POINT_DATA        40 
VECTORS Displacements float
       4.20917322e-06       0.00000000e+00       4.21627204e-06 
       4.20917322e-06       0.00000000e+00       4.21627204e-06 
      -4.20917322e-06       0.00000000e+00      -4.21627204e-06 
      -4.20917322e-06       0.00000000e+00      -4.21627204e-06 
       4.20917322e-06       0.00000000e+00       3.38008782e-03 
       4.20917322e-06       0.00000000e+00       3.38008782e-03 
      -4.20917322e-06       0.00000000e+00       3.37165527e-03 
      -4.20917322e-06       0.00000000e+00       3.37165527e-03 
       5.95266986e-06       0.00000000e+00       5.96270910e-06 
       0.00000000e+00       0.00000000e+00       0.00000000e+00 
      -5.95266986e-06       0.00000000e+00      -5.96270910e-06 
       0.00000000e+00       0.00000000e+00       0.00000000e+00 
       5.95266986e-06       0.00000000e+00       3.38183425e-03 
       0.00000000e+00       0.00000000e+00       3.37587154e-03 
      -5.95266986e-06       0.00000000e+00       3.36990883e-03 
       0.00000000e+00       0.00000000e+00       3.37587154e-03 
       4.20917322e-06       0.00000000e+00       1.69215204e-03 
       4.20917322e-06       0.00000000e+00       1.69215204e-03 
      -4.20917322e-06       0.00000000e+00       1.68371950e-03 
      -4.20917322e-06       0.00000000e+00       1.68371950e-03 
      -4.20917322e-06       0.00000000e+00       3.38008782e-03 
      -4.20917322e-06       0.00000000e+00       3.38008782e-03 
       4.20917322e-06       0.00000000e+00       3.37165527e-03 
       4.20917322e-06       0.00000000e+00       3.37165527e-03 
      -4.20917322e-06       0.00000000e+00       4.21627204e-06 
      -4.20917322e-06       0.00000000e+00       4.21627204e-06 
       4.20917322e-06       0.00000000e+00      -4.21627204e-06 
       4.20917322e-06       0.00000000e+00      -4.21627204e-06 
      -5.95266986e-06       0.00000000e+00       3.38183425e-03 
       0.00000000e+00       0.00000000e+00       3.37587154e-03 
       5.95266986e-06       0.00000000e+00       3.36990883e-03 
       0.00000000e+00       0.00000000e+00       3.37587154e-03 
      -5.95266986e-06       0.00000000e+00       5.96270910e-06 
       0.00000000e+00       0.00000000e+00       0.00000000e+00 
       5.95266986e-06       0.00000000e+00      -5.96270910e-06 
       0.00000000e+00       0.00000000e+00       0.00000000e+00 
      -4.20917322e-06       0.00000000e+00       1.69215204e-03 
      -4.20917322e-06       0.00000000e+00       1.69215204e-03 
       4.20917322e-06       0.00000000e+00       1.68371950e-03 
       4.20917322e-06       0.00000000e+00       1.68371950e-03 

