# vtk DataFile Version 2.0
./output/static_plastic_von_mises_truss/static_plastic_von_mises_truss_0230.vtk
ASCII
DATASET UNSTRUCTURED_GRID

POINTS 40 float
       2.504737e-03      -3.535534e-03      -2.495254e-03 
       2.504737e-03       3.535534e-03      -2.495254e-03 
      -2.504737e-03       3.535534e-03       2.495254e-03 
      -2.504737e-03      -3.535534e-03       2.495254e-03 
       1.002505e+00      -3.535534e-03       1.001305e+00 
       1.002505e+00       3.535534e-03       1.001305e+00 
       9.974953e-01       3.535534e-03       1.006296e+00 
       9.974953e-01      -3.535534e-03       1.006296e+00 
       3.542233e-03       0.000000e+00      -3.528822e-03 
       0.000000e+00       5.000000e-03       0.000000e+00 
      -3.542233e-03       0.000000e+00       3.528822e-03 
       0.000000e+00      -5.000000e-03       0.000000e+00 
       1.003542e+00       0.000000e+00       1.000272e+00 
       1.000000e+00       5.000000e-03       1.003800e+00 
       9.964578e-01       0.000000e+00       1.007329e+00 
       1.000000e+00      -5.000000e-03       1.003800e+00 
       5.025047e-01      -3.535534e-03       4.994050e-01 
       5.025047e-01       3.535534e-03       4.994050e-01 
       4.974953e-01       3.535534e-03       5.043955e-01 
       4.974953e-01      -3.535534e-03       5.043955e-01 
       9.974953e-01      -3.535534e-03       1.001305e+00 
       9.974953e-01       3.535534e-03       1.001305e+00 
       1.002505e+00       3.535534e-03       1.006296e+00 
       1.002505e+00      -3.535534e-03       1.006296e+00 
       1.997495e+00      -3.535534e-03      -2.495254e-03 
       1.997495e+00       3.535534e-03      -2.495254e-03 
       2.002505e+00       3.535534e-03       2.495254e-03 
       2.002505e+00      -3.535534e-03       2.495254e-03 
       9.964578e-01       0.000000e+00       1.000272e+00 
       1.000000e+00       5.000000e-03       1.003800e+00 
       1.003542e+00       0.000000e+00       1.007329e+00 
       1.000000e+00      -5.000000e-03       1.003800e+00 
       1.996458e+00       0.000000e+00      -3.528822e-03 
       2.000000e+00       5.000000e-03       0.000000e+00 
       2.003542e+00       0.000000e+00       3.528822e-03 
       2.000000e+00      -5.000000e-03       0.000000e+00 
       1.497495e+00      -3.535534e-03       4.994050e-01 
       1.497495e+00       3.535534e-03       4.994050e-01 
       1.502505e+00       3.535534e-03       5.043955e-01 
       1.502505e+00      -3.535534e-03       5.043955e-01 

CELLS 2 42
20 0 1 2 3 4 5 6 7 8 9 10 11 12 13 14 15 16 17 18 19 
20 20 21 22 23 24 25 26 27 28 29 30 31 32 33 34 35 36 37 38 39 

CELL_TYPES 2
 25
 25

POINT_DATA        40 
VECTORS Displacements float
       4.73703928e-06       8.67361738e-19       4.74603215e-06 
       4.73703928e-06      -8.67361738e-19       4.74603215e-06 
      -4.73703928e-06      -8.67361738e-19      -4.74603215e-06 
      -4.73703928e-06       8.67361738e-19      -4.74603215e-06 
       4.73703928e-06       8.67361738e-19       3.80518942e-03 
       4.73703928e-06      -8.67361738e-19       3.80518942e-03 
      -4.73703928e-06      -8.67361738e-19       3.79569735e-03 
      -4.73703928e-06       8.67361738e-19       3.79569735e-03 
       6.69918520e-06       0.00000000e+00       6.71190304e-06 
       0.00000000e+00      -8.67361738e-19       0.00000000e+00 
      -6.69918520e-06       0.00000000e+00      -6.71190304e-06 
       0.00000000e+00       8.67361738e-19       0.00000000e+00 
       6.69918520e-06       0.00000000e+00       3.80715529e-03 
      -1.11022302e-16      -8.67361738e-19       3.80044338e-03 
      -6.69918520e-06       0.00000000e+00       3.79373148e-03 
      -1.11022302e-16       8.67361738e-19       3.80044338e-03 
       4.73703928e-06       8.67361738e-19       1.90496772e-03 
       4.73703928e-06      -8.67361738e-19       1.90496772e-03 
      -4.73703928e-06      -8.67361738e-19       1.89547566e-03 
      -4.73703928e-06       8.67361738e-19       1.89547566e-03 
      -4.73703928e-06       8.67361738e-19       3.80518942e-03 
      -4.73703928e-06      -8.67361738e-19       3.80518942e-03 
       4.73703928e-06      -8.67361738e-19       3.79569735e-03 
       4.73703928e-06       8.67361738e-19       3.79569735e-03 
      -4.73703928e-06       8.67361738e-19       4.74603215e-06 
      -4.73703928e-06      -8.67361738e-19       4.74603215e-06 
       4.73703928e-06      -8.67361738e-19      -4.74603215e-06 
       4.73703928e-06       8.67361738e-19      -4.74603215e-06 
      -6.69918520e-06       0.00000000e+00       3.80715529e-03 
       0.00000000e+00      -8.67361738e-19       3.80044338e-03 
       6.69918520e-06       0.00000000e+00       3.79373148e-03 
       0.00000000e+00       8.67361738e-19       3.80044338e-03 
      -6.69918520e-06       0.00000000e+00       6.71190304e-06 
       0.00000000e+00      -8.67361738e-19       0.00000000e+00 
       6.69918520e-06       0.00000000e+00      -6.71190304e-06 
       0.00000000e+00       8.67361738e-19       0.00000000e+00 
      -4.73703928e-06       8.67361738e-19       1.90496772e-03 
      -4.73703928e-06      -8.67361738e-19       1.90496772e-03 
       4.73703928e-06      -8.67361738e-19       1.89547566e-03 
       4.73703928e-06       8.67361738e-19       1.89547566e-03 

