# vtk DataFile Version 2.0
./output/static_plastic_von_mises_truss/static_plastic_von_mises_truss_0129.vtk
ASCII
DATASET UNSTRUCTURED_GRID

POINTS 40 float
       2.499817e-03      -3.535534e-03      -2.500183e-03 
       2.499817e-03       3.535534e-03      -2.500183e-03 
      -2.499817e-03       3.535534e-03       2.500183e-03 
      -2.499817e-03      -3.535534e-03       2.500183e-03 
       1.002500e+00      -3.535534e-03       9.973533e-01 
       1.002500e+00       3.535534e-03       9.973533e-01 
       9.975002e-01       3.535534e-03       1.002354e+00 
       9.975002e-01      -3.535534e-03       1.002354e+00 
       3.535275e-03       0.000000e+00      -3.535793e-03 
       0.000000e+00       5.000000e-03       0.000000e+00 
      -3.535275e-03       0.000000e+00       3.535793e-03 
       0.000000e+00      -5.000000e-03       0.000000e+00 
       1.003535e+00       0.000000e+00       9.963177e-01 
       1.000000e+00       5.000000e-03       9.998535e-01 
       9.964647e-01       0.000000e+00       1.003389e+00 
       1.000000e+00      -5.000000e-03       9.998535e-01 
       5.024998e-01      -3.535534e-03       4.974265e-01 
       5.024998e-01       3.535534e-03       4.974265e-01 
       4.975002e-01       3.535534e-03       5.024269e-01 
       4.975002e-01      -3.535534e-03       5.024269e-01 
       9.975002e-01      -3.535534e-03       9.973533e-01 
       9.975002e-01       3.535534e-03       9.973533e-01 
       1.002500e+00       3.535534e-03       1.002354e+00 
       1.002500e+00      -3.535534e-03       1.002354e+00 
       1.997500e+00      -3.535534e-03      -2.500183e-03 
       1.997500e+00       3.535534e-03      -2.500183e-03 
       2.002500e+00       3.535534e-03       2.500183e-03 
       2.002500e+00      -3.535534e-03       2.500183e-03 
       9.964647e-01       0.000000e+00       9.963177e-01 
       1.000000e+00       5.000000e-03       9.998535e-01 
       1.003535e+00       0.000000e+00       1.003389e+00 
       1.000000e+00      -5.000000e-03       9.998535e-01 
       1.996465e+00       0.000000e+00      -3.535793e-03 
       2.000000e+00       5.000000e-03       0.000000e+00 
       2.003535e+00       0.000000e+00       3.535793e-03 
       2.000000e+00      -5.000000e-03       0.000000e+00 
       1.497500e+00      -3.535534e-03       4.974265e-01 
       1.497500e+00       3.535534e-03       4.974265e-01 
       1.502500e+00       3.535534e-03       5.024269e-01 
       1.502500e+00      -3.535534e-03       5.024269e-01 

CELLS 2 42
20 0 1 2 3 4 5 6 7 8 9 10 11 12 13 14 15 16 17 18 19 
20 20 21 22 23 24 25 26 27 28 29 30 31 32 33 34 35 36 37 38 39 

CELL_TYPES 2
 25
 25

POINT_DATA        40 
VECTORS Displacements float
      -1.83188075e-07       0.00000000e+00      -1.83174653e-07 
      -1.83188075e-07       0.00000000e+00      -1.83174653e-07 
       1.83188075e-07       0.00000000e+00       1.83174653e-07 
       1.83188075e-07       0.00000000e+00       1.83174653e-07 
      -1.83188075e-07       0.00000000e+00      -1.46717530e-04 
      -1.83188075e-07       0.00000000e+00      -1.46717530e-04 
       1.83188075e-07       0.00000000e+00      -1.46351180e-04 
       1.83188075e-07       0.00000000e+00      -1.46351180e-04 
      -2.59067061e-07       0.00000000e+00      -2.59048079e-07 
       0.00000000e+00       0.00000000e+00       0.00000000e+00 
       2.59067061e-07       0.00000000e+00       2.59048079e-07 
       0.00000000e+00       0.00000000e+00       0.00000000e+00 
      -2.59067061e-07       0.00000000e+00      -1.46793403e-04 
       0.00000000e+00       0.00000000e+00      -1.46534355e-04 
       2.59067061e-07       0.00000000e+00      -1.46275307e-04 
       0.00000000e+00       0.00000000e+00      -1.46534355e-04 
      -1.83188075e-07       0.00000000e+00      -7.34503521e-05 
      -1.83188075e-07       0.00000000e+00      -7.34503521e-05 
       1.83188075e-07       0.00000000e+00      -7.30840028e-05 
       1.83188075e-07       0.00000000e+00      -7.30840028e-05 
       1.83188075e-07       0.00000000e+00      -1.46717530e-04 
       1.83188075e-07       0.00000000e+00      -1.46717530e-04 
      -1.83188075e-07       0.00000000e+00      -1.46351180e-04 
      -1.83188075e-07       0.00000000e+00      -1.46351180e-04 
       1.83188075e-07       0.00000000e+00      -1.83174653e-07 
       1.83188075e-07       0.00000000e+00      -1.83174653e-07 
      -1.83188075e-07       0.00000000e+00       1.83174653e-07 
      -1.83188075e-07       0.00000000e+00       1.83174653e-07 
       2.59067061e-07       0.00000000e+00      -1.46793403e-04 
       0.00000000e+00       0.00000000e+00      -1.46534355e-04 
      -2.59067061e-07       0.00000000e+00      -1.46275307e-04 
       0.00000000e+00       0.00000000e+00      -1.46534355e-04 
       2.59067061e-07       0.00000000e+00      -2.59048079e-07 
       0.00000000e+00       0.00000000e+00       0.00000000e+00 
      -2.59067061e-07       0.00000000e+00       2.59048079e-07 
       0.00000000e+00       0.00000000e+00       0.00000000e+00 
       1.83188075e-07       0.00000000e+00      -7.34503521e-05 
       1.83188075e-07       0.00000000e+00      -7.34503521e-05 
      -1.83188075e-07       0.00000000e+00      -7.30840028e-05 
      -1.83188075e-07       0.00000000e+00      -7.30840028e-05 

