# vtk DataFile Version 2.0
./output/static_plastic_von_mises_truss/static_plastic_von_mises_truss_0265.vtk
ASCII
DATASET UNSTRUCTURED_GRID

POINTS 40 float
       2.501648e-03      -3.535534e-03      -2.498351e-03 
       2.501648e-03       3.535534e-03      -2.498351e-03 
      -2.501648e-03       3.535534e-03       2.498351e-03 
      -2.501648e-03      -3.535534e-03       2.498351e-03 
       1.002502e+00      -3.535534e-03       9.988216e-01 
       1.002502e+00       3.535534e-03       9.988216e-01 
       9.974984e-01       3.535534e-03       1.003818e+00 
       9.974984e-01      -3.535534e-03       1.003818e+00 
       3.537865e-03       0.000000e+00      -3.533201e-03 
       0.000000e+00       5.000000e-03       0.000000e+00 
      -3.537865e-03       0.000000e+00       3.533201e-03 
       0.000000e+00      -5.000000e-03       0.000000e+00 
       1.003538e+00       0.000000e+00       9.977868e-01 
       1.000000e+00       5.000000e-03       1.001320e+00 
       9.964621e-01       0.000000e+00       1.004853e+00 
       1.000000e+00      -5.000000e-03       1.001320e+00 
       5.025016e-01      -3.535534e-03       4.981616e-01 
       5.025016e-01       3.535534e-03       4.981616e-01 
       4.974984e-01       3.535534e-03       5.031583e-01 
       4.974984e-01      -3.535534e-03       5.031583e-01 
       9.974984e-01      -3.535534e-03       9.988216e-01 
       9.974984e-01       3.535534e-03       9.988216e-01 
       1.002502e+00       3.535534e-03       1.003818e+00 
       1.002502e+00      -3.535534e-03       1.003818e+00 
       1.997498e+00      -3.535534e-03      -2.498351e-03 
       1.997498e+00       3.535534e-03      -2.498351e-03 
       2.002502e+00       3.535534e-03       2.498351e-03 
       2.002502e+00      -3.535534e-03       2.498351e-03 
       9.964621e-01       0.000000e+00       9.977868e-01 
       1.000000e+00       5.000000e-03       1.001320e+00 
       1.003538e+00       0.000000e+00       1.004853e+00 
       1.000000e+00      -5.000000e-03       1.001320e+00 
       1.996462e+00       0.000000e+00      -3.533201e-03 
       2.000000e+00       5.000000e-03       0.000000e+00 
       2.003538e+00       0.000000e+00       3.533201e-03 
       2.000000e+00      -5.000000e-03       0.000000e+00 
       1.497498e+00      -3.535534e-03       4.981616e-01 
       1.497498e+00       3.535534e-03       4.981616e-01 
       1.502502e+00       3.535534e-03       5.031583e-01 
       1.502502e+00      -3.535534e-03       5.031583e-01 

CELLS 2 42
20 0 1 2 3 4 5 6 7 8 9 10 11 12 13 14 15 16 17 18 19 
20 20 21 22 23 24 25 26 27 28 29 30 31 32 33 34 35 36 37 38 39 

CELL_TYPES 2
 25
 25

POINT_DATA        40 
VECTORS Displacements float
       1.64833744e-06       0.00000000e+00       1.64942497e-06 
       1.64833744e-06       0.00000000e+00       1.64942497e-06 
      -1.64833744e-06       0.00000000e+00      -1.64942497e-06 
      -1.64833744e-06       0.00000000e+00      -1.64942497e-06 
       1.64833744e-06       0.00000000e+00       1.32162527e-03 
       1.64833744e-06       0.00000000e+00       1.32162527e-03 
      -1.64833744e-06       0.00000000e+00       1.31832642e-03 
      -1.64833744e-06       0.00000000e+00       1.31832642e-03 
       2.33110117e-06       0.00000000e+00       2.33263916e-06 
       0.00000000e+00       0.00000000e+00       0.00000000e+00 
      -2.33110117e-06       0.00000000e+00      -2.33263916e-06 
       0.00000000e+00       0.00000000e+00       0.00000000e+00 
       2.33110117e-06       0.00000000e+00       1.32230848e-03 
      -1.11022302e-16       0.00000000e+00       1.31997584e-03 
      -2.33110117e-06       0.00000000e+00       1.31764320e-03 
      -1.11022302e-16       0.00000000e+00       1.31997584e-03 
       1.64833744e-06       0.00000000e+00       6.61637347e-04 
       1.64833744e-06       0.00000000e+00       6.61637347e-04 
      -1.64833744e-06       0.00000000e+00       6.58338497e-04 
      -1.64833744e-06       0.00000000e+00       6.58338497e-04 
      -1.64833744e-06       0.00000000e+00       1.32162527e-03 
      -1.64833744e-06       0.00000000e+00       1.32162527e-03 
       1.64833744e-06       0.00000000e+00       1.31832642e-03 
       1.64833744e-06       0.00000000e+00       1.31832642e-03 
      -1.64833744e-06       0.00000000e+00       1.64942497e-06 
      -1.64833744e-06       0.00000000e+00       1.64942497e-06 
       1.64833744e-06       0.00000000e+00      -1.64942497e-06 
       1.64833744e-06       0.00000000e+00      -1.64942497e-06 
      -2.33110117e-06       0.00000000e+00       1.32230848e-03 
       0.00000000e+00       0.00000000e+00       1.31997584e-03 
       2.33110117e-06       0.00000000e+00       1.31764320e-03 
       0.00000000e+00       0.00000000e+00       1.31997584e-03 
      -2.33110117e-06       0.00000000e+00       2.33263916e-06 
       0.00000000e+00       0.00000000e+00       0.00000000e+00 
       2.33110117e-06       0.00000000e+00      -2.33263916e-06 
       0.00000000e+00       0.00000000e+00       0.00000000e+00 
      -1.64833744e-06       0.00000000e+00       6.61637347e-04 
      -1.64833744e-06       0.00000000e+00       6.61637347e-04 
       1.64833744e-06       0.00000000e+00       6.58338497e-04 
       1.64833744e-06       0.00000000e+00       6.58338497e-04 

