# vtk DataFile Version 2.0
./output/static_plastic_von_mises_truss/static_plastic_von_mises_truss_0113.vtk
ASCII
DATASET UNSTRUCTURED_GRID

POINTS 40 float
       2.501195e-03      -3.535534e-03      -2.498804e-03 
       2.501195e-03       3.535534e-03      -2.498804e-03 
      -2.501195e-03       3.535534e-03       2.498804e-03 
      -2.501195e-03      -3.535534e-03       2.498804e-03 
       1.002501e+00      -3.535534e-03       9.984582e-01 
       1.002501e+00       3.535534e-03       9.984582e-01 
       9.974988e-01       3.535534e-03       1.003456e+00 
       9.974988e-01      -3.535534e-03       1.003456e+00 
       3.537225e-03       0.000000e+00      -3.533842e-03 
       0.000000e+00       5.000000e-03       0.000000e+00 
      -3.537225e-03       0.000000e+00       3.533842e-03 
       0.000000e+00      -5.000000e-03       0.000000e+00 
       1.003537e+00       0.000000e+00       9.974232e-01 
       1.000000e+00       5.000000e-03       1.000957e+00 
       9.964628e-01       0.000000e+00       1.004491e+00 
       1.000000e+00      -5.000000e-03       1.000957e+00 
       5.025012e-01      -3.535534e-03       4.979797e-01 
       5.025012e-01       3.535534e-03       4.979797e-01 
       4.974988e-01       3.535534e-03       5.029773e-01 
       4.974988e-01      -3.535534e-03       5.029773e-01 
       9.974988e-01      -3.535534e-03       9.984582e-01 
       9.974988e-01       3.535534e-03       9.984582e-01 
       1.002501e+00       3.535534e-03       1.003456e+00 
       1.002501e+00      -3.535534e-03       1.003456e+00 
       1.997499e+00      -3.535534e-03      -2.498804e-03 
       1.997499e+00       3.535534e-03      -2.498804e-03 
       2.002501e+00       3.535534e-03       2.498804e-03 
       2.002501e+00      -3.535534e-03       2.498804e-03 
       9.964628e-01       0.000000e+00       9.974232e-01 
       1.000000e+00       5.000000e-03       1.000957e+00 
       1.003537e+00       0.000000e+00       1.004491e+00 
       1.000000e+00      -5.000000e-03       1.000957e+00 
       1.996463e+00       0.000000e+00      -3.533842e-03 
       2.000000e+00       5.000000e-03       0.000000e+00 
       2.003537e+00       0.000000e+00       3.533842e-03 
       2.000000e+00      -5.000000e-03       0.000000e+00 
       1.497499e+00      -3.535534e-03       4.979797e-01 
       1.497499e+00       3.535534e-03       4.979797e-01 
       1.502501e+00       3.535534e-03       5.029773e-01 
       1.502501e+00      -3.535534e-03       5.029773e-01 

CELLS 2 42
20 0 1 2 3 4 5 6 7 8 9 10 11 12 13 14 15 16 17 18 19 
20 20 21 22 23 24 25 26 27 28 29 30 31 32 33 34 35 36 37 38 39 

CELL_TYPES 2
 25
 25

POINT_DATA        40 
VECTORS Displacements float
       1.19544458e-06       0.00000000e+00       1.19601649e-06 
       1.19544458e-06       0.00000000e+00       1.19601649e-06 
      -1.19544458e-06       0.00000000e+00      -1.19601649e-06 
      -1.19544458e-06       0.00000000e+00      -1.19601649e-06 
       1.19544458e-06       0.00000000e+00       9.58238299e-04 
       1.19544458e-06       0.00000000e+00       9.58238299e-04 
      -1.19544458e-06       0.00000000e+00       9.55846266e-04 
      -1.19544458e-06       0.00000000e+00       9.55846266e-04 
       1.69061394e-06       0.00000000e+00       1.69142274e-06 
       0.00000000e+00       0.00000000e+00       0.00000000e+00 
      -1.69061394e-06       0.00000000e+00      -1.69142274e-06 
       0.00000000e+00       0.00000000e+00       0.00000000e+00 
       1.69061394e-06       0.00000000e+00       9.58733706e-04 
       0.00000000e+00       0.00000000e+00       9.57042283e-04 
      -1.69061394e-06       0.00000000e+00       9.55350860e-04 
       0.00000000e+00       0.00000000e+00       9.57042283e-04 
       1.19544458e-06       0.00000000e+00       4.79717158e-04 
       1.19544458e-06       0.00000000e+00       4.79717158e-04 
      -1.19544458e-06       0.00000000e+00       4.77325125e-04 
      -1.19544458e-06       0.00000000e+00       4.77325125e-04 
      -1.19544458e-06       0.00000000e+00       9.58238299e-04 
      -1.19544458e-06       0.00000000e+00       9.58238299e-04 
       1.19544458e-06       0.00000000e+00       9.55846266e-04 
       1.19544458e-06       0.00000000e+00       9.55846266e-04 
      -1.19544458e-06       0.00000000e+00       1.19601649e-06 
      -1.19544458e-06       0.00000000e+00       1.19601649e-06 
       1.19544458e-06       0.00000000e+00      -1.19601649e-06 
       1.19544458e-06       0.00000000e+00      -1.19601649e-06 
      -1.69061394e-06       0.00000000e+00       9.58733706e-04 
       0.00000000e+00       0.00000000e+00       9.57042283e-04 
       1.69061394e-06       0.00000000e+00       9.55350860e-04 
       0.00000000e+00       0.00000000e+00       9.57042283e-04 
      -1.69061394e-06       0.00000000e+00       1.69142274e-06 
       0.00000000e+00       0.00000000e+00       0.00000000e+00 
       1.69061394e-06       0.00000000e+00      -1.69142274e-06 
       0.00000000e+00       0.00000000e+00       0.00000000e+00 
      -1.19544458e-06       0.00000000e+00       4.79717158e-04 
      -1.19544458e-06       0.00000000e+00       4.79717158e-04 
       1.19544458e-06       0.00000000e+00       4.77325125e-04 
       1.19544458e-06       0.00000000e+00       4.77325125e-04 

