# vtk DataFile Version 2.0
./output/static_plastic_von_mises_truss/static_plastic_von_mises_truss_0160.vtk
ASCII
DATASET UNSTRUCTURED_GRID

POINTS 40 float
       2.496123e-03      -3.535534e-03      -2.503871e-03 
       2.496123e-03       3.535534e-03      -2.503871e-03 
      -2.496123e-03       3.535534e-03       2.503871e-03 
      -2.496123e-03      -3.535534e-03       2.503871e-03 
       1.002496e+00      -3.535534e-03       9.944013e-01 
       1.002496e+00       3.535534e-03       9.944013e-01 
       9.975039e-01       3.535534e-03       9.994091e-01 
       9.975039e-01      -3.535534e-03       9.994091e-01 
       3.530050e-03       0.000000e+00      -3.541009e-03 
       0.000000e+00       5.000000e-03       0.000000e+00 
      -3.530050e-03       0.000000e+00       3.541009e-03 
       0.000000e+00      -5.000000e-03       0.000000e+00 
       1.003530e+00       0.000000e+00       9.933642e-01 
       1.000000e+00       5.000000e-03       9.969052e-01 
       9.964699e-01       0.000000e+00       1.000446e+00 
       1.000000e+00      -5.000000e-03       9.969052e-01 
       5.024961e-01      -3.535534e-03       4.959487e-01 
       5.024961e-01       3.535534e-03       4.959487e-01 
       4.975039e-01       3.535534e-03       5.009565e-01 
       4.975039e-01      -3.535534e-03       5.009565e-01 
       9.975039e-01      -3.535534e-03       9.944013e-01 
       9.975039e-01       3.535534e-03       9.944013e-01 
       1.002496e+00       3.535534e-03       9.994091e-01 
       1.002496e+00      -3.535534e-03       9.994091e-01 
       1.997504e+00      -3.535534e-03      -2.503871e-03 
       1.997504e+00       3.535534e-03      -2.503871e-03 
       2.002496e+00       3.535534e-03       2.503871e-03 
       2.002496e+00      -3.535534e-03       2.503871e-03 
       9.964699e-01       0.000000e+00       9.933642e-01 
       1.000000e+00       5.000000e-03       9.969052e-01 
       1.003530e+00       0.000000e+00       1.000446e+00 
       1.000000e+00      -5.000000e-03       9.969052e-01 
       1.996470e+00       0.000000e+00      -3.541009e-03 
       2.000000e+00       5.000000e-03       0.000000e+00 
       2.003530e+00       0.000000e+00       3.541009e-03 
       2.000000e+00      -5.000000e-03       0.000000e+00 
       1.497504e+00      -3.535534e-03       4.959487e-01 
       1.497504e+00       3.535534e-03       4.959487e-01 
       1.502496e+00       3.535534e-03       5.009565e-01 
       1.502496e+00      -3.535534e-03       5.009565e-01 

CELLS 2 42
20 0 1 2 3 4 5 6 7 8 9 10 11 12 13 14 15 16 17 18 19 
20 20 21 22 23 24 25 26 27 28 29 30 31 32 33 34 35 36 37 38 39 

CELL_TYPES 2
 25
 25

POINT_DATA        40 
VECTORS Displacements float
      -3.87749698e-06       0.00000000e+00      -3.87149229e-06 
      -3.87749698e-06       0.00000000e+00      -3.87149229e-06 
       3.87749698e-06       0.00000000e+00       3.87149229e-06 
       3.87749698e-06       0.00000000e+00       3.87149229e-06 
      -3.87749698e-06       0.00000000e+00      -3.09867460e-03 
      -3.87749698e-06       0.00000000e+00      -3.09867460e-03 
       3.87749698e-06       0.00000000e+00      -3.09093161e-03 
       3.87749698e-06       0.00000000e+00      -3.09093161e-03 
      -5.48360881e-06       0.00000000e+00      -5.47511690e-06 
       0.00000000e+00       0.00000000e+00       0.00000000e+00 
       5.48360881e-06       0.00000000e+00       5.47511690e-06 
       0.00000000e+00       0.00000000e+00       0.00000000e+00 
      -5.48360881e-06       0.00000000e+00      -3.10027822e-03 
       0.00000000e+00       0.00000000e+00      -3.09480310e-03 
       5.48360881e-06       0.00000000e+00      -3.08932799e-03 
       0.00000000e+00       0.00000000e+00      -3.09480310e-03 
      -3.87749698e-06       0.00000000e+00      -1.55127304e-03 
      -3.87749698e-06       0.00000000e+00      -1.55127304e-03 
       3.87749698e-06       0.00000000e+00      -1.54353006e-03 
       3.87749698e-06       0.00000000e+00      -1.54353006e-03 
       3.87749698e-06       0.00000000e+00      -3.09867460e-03 
       3.87749698e-06       0.00000000e+00      -3.09867460e-03 
      -3.87749698e-06       0.00000000e+00      -3.09093161e-03 
      -3.87749698e-06       0.00000000e+00      -3.09093161e-03 
       3.87749698e-06       0.00000000e+00      -3.87149229e-06 
       3.87749698e-06       0.00000000e+00      -3.87149229e-06 
      -3.87749698e-06       0.00000000e+00       3.87149229e-06 
      -3.87749698e-06       0.00000000e+00       3.87149229e-06 
       5.48360881e-06       0.00000000e+00      -3.10027822e-03 
       0.00000000e+00       0.00000000e+00      -3.09480310e-03 
      -5.48360881e-06       0.00000000e+00      -3.08932799e-03 
       0.00000000e+00       0.00000000e+00      -3.09480310e-03 
       5.48360881e-06       0.00000000e+00      -5.47511690e-06 
       0.00000000e+00       0.00000000e+00       0.00000000e+00 
      -5.48360881e-06       0.00000000e+00       5.47511690e-06 
       0.00000000e+00       0.00000000e+00       0.00000000e+00 
       3.87749698e-06       0.00000000e+00      -1.55127304e-03 
       3.87749698e-06       0.00000000e+00      -1.55127304e-03 
      -3.87749698e-06       0.00000000e+00      -1.54353006e-03 
      -3.87749698e-06       0.00000000e+00      -1.54353006e-03 

