# vtk DataFile Version 2.0
./output/static_plastic_von_mises_truss/static_plastic_von_mises_truss_0255.vtk
ASCII
DATASET UNSTRUCTURED_GRID

POINTS 40 float
       2.502533e-03      -3.535534e-03      -2.497464e-03 
       2.502533e-03       3.535534e-03      -2.497464e-03 
      -2.502533e-03       3.535534e-03       2.497464e-03 
      -2.502533e-03      -3.535534e-03       2.497464e-03 
       1.002503e+00      -3.535534e-03       9.995322e-01 
       1.002503e+00       3.535534e-03       9.995322e-01 
       9.974975e-01       3.535534e-03       1.004527e+00 
       9.974975e-01      -3.535534e-03       1.004527e+00 
       3.539116e-03       0.000000e+00      -3.531948e-03 
       0.000000e+00       5.000000e-03       0.000000e+00 
      -3.539116e-03       0.000000e+00       3.531948e-03 
       0.000000e+00      -5.000000e-03       0.000000e+00 
       1.003539e+00       0.000000e+00       9.984977e-01 
       1.000000e+00       5.000000e-03       1.002030e+00 
       9.964609e-01       0.000000e+00       1.005562e+00 
       1.000000e+00      -5.000000e-03       1.002030e+00 
       5.025025e-01      -3.535534e-03       4.985173e-01 
       5.025025e-01       3.535534e-03       4.985173e-01 
       4.974975e-01       3.535534e-03       5.035123e-01 
       4.974975e-01      -3.535534e-03       5.035123e-01 
       9.974975e-01      -3.535534e-03       9.995322e-01 
       9.974975e-01       3.535534e-03       9.995322e-01 
       1.002503e+00       3.535534e-03       1.004527e+00 
       1.002503e+00      -3.535534e-03       1.004527e+00 
       1.997497e+00      -3.535534e-03      -2.497464e-03 
       1.997497e+00       3.535534e-03      -2.497464e-03 
       2.002503e+00       3.535534e-03       2.497464e-03 
       2.002503e+00      -3.535534e-03       2.497464e-03 
       9.964609e-01       0.000000e+00       9.984977e-01 
       1.000000e+00       5.000000e-03       1.002030e+00 
       1.003539e+00       0.000000e+00       1.005562e+00 
       1.000000e+00      -5.000000e-03       1.002030e+00 
       1.996461e+00       0.000000e+00      -3.531948e-03 
       2.000000e+00       5.000000e-03       0.000000e+00 
       2.003539e+00       0.000000e+00       3.531948e-03 
       2.000000e+00      -5.000000e-03       0.000000e+00 
       1.497497e+00      -3.535534e-03       4.985173e-01 
       1.497497e+00       3.535534e-03       4.985173e-01 
       1.502503e+00       3.535534e-03       5.035123e-01 
       1.502503e+00      -3.535534e-03       5.035123e-01 

CELLS 2 42
20 0 1 2 3 4 5 6 7 8 9 10 11 12 13 14 15 16 17 18 19 
20 20 21 22 23 24 25 26 27 28 29 30 31 32 33 34 35 36 37 38 39 

CELL_TYPES 2
 25
 25

POINT_DATA        40 
VECTORS Displacements float
       2.53316571e-06       0.00000000e+00       2.53573509e-06 
       2.53316571e-06       0.00000000e+00       2.53573509e-06 
      -2.53316571e-06       0.00000000e+00      -2.53573509e-06 
      -2.53316571e-06       0.00000000e+00      -2.53573509e-06 
       2.53316571e-06       0.00000000e+00       2.03215469e-03 
       2.53316571e-06       0.00000000e+00       2.03215469e-03 
      -2.53316571e-06       0.00000000e+00       2.02708322e-03 
      -2.53316571e-06       0.00000000e+00       2.02708322e-03 
       3.58243731e-06       0.00000000e+00       3.58607095e-06 
       0.00000000e+00       0.00000000e+00       0.00000000e+00 
      -3.58243731e-06       0.00000000e+00      -3.58607095e-06 
       0.00000000e+00       0.00000000e+00       0.00000000e+00 
       3.58243731e-06       0.00000000e+00       2.03320502e-03 
       0.00000000e+00       0.00000000e+00       2.02961895e-03 
      -3.58243731e-06       0.00000000e+00       2.02603288e-03 
       0.00000000e+00       0.00000000e+00       2.02961895e-03 
       2.53316571e-06       0.00000000e+00       1.01734521e-03 
       2.53316571e-06       0.00000000e+00       1.01734521e-03 
      -2.53316571e-06       0.00000000e+00       1.01227374e-03 
      -2.53316571e-06       0.00000000e+00       1.01227374e-03 
      -2.53316571e-06       0.00000000e+00       2.03215469e-03 
      -2.53316571e-06       0.00000000e+00       2.03215469e-03 
       2.53316571e-06       0.00000000e+00       2.02708322e-03 
       2.53316571e-06       0.00000000e+00       2.02708322e-03 
      -2.53316571e-06       0.00000000e+00       2.53573509e-06 
      -2.53316571e-06       0.00000000e+00       2.53573509e-06 
       2.53316571e-06       0.00000000e+00      -2.53573509e-06 
       2.53316571e-06       0.00000000e+00      -2.53573509e-06 
      -3.58243731e-06       0.00000000e+00       2.03320502e-03 
       0.00000000e+00       0.00000000e+00       2.02961895e-03 
       3.58243731e-06       0.00000000e+00       2.02603288e-03 
       0.00000000e+00       0.00000000e+00       2.02961895e-03 
      -3.58243731e-06       0.00000000e+00       3.58607095e-06 
       0.00000000e+00       0.00000000e+00       0.00000000e+00 
       3.58243731e-06       0.00000000e+00      -3.58607095e-06 
       0.00000000e+00       0.00000000e+00       0.00000000e+00 
      -2.53316571e-06       0.00000000e+00       1.01734521e-03 
      -2.53316571e-06       0.00000000e+00       1.01734521e-03 
       2.53316571e-06       0.00000000e+00       1.01227374e-03 
       2.53316571e-06       0.00000000e+00       1.01227374e-03 

