# vtk DataFile Version 2.0
./output/static_plastic_von_mises_truss/static_plastic_von_mises_truss_0040.vtk
ASCII
DATASET UNSTRUCTURED_GRID

POINTS 40 float
       2.501711e-03      -3.535534e-03      -2.498287e-03 
       2.501711e-03       3.535534e-03      -2.498287e-03 
      -2.501711e-03       3.535534e-03       2.498287e-03 
      -2.501711e-03      -3.535534e-03       2.498287e-03 
       1.002502e+00      -3.535534e-03       9.988722e-01 
       1.002502e+00       3.535534e-03       9.988722e-01 
       9.974983e-01       3.535534e-03       1.003869e+00 
       9.974983e-01      -3.535534e-03       1.003869e+00 
       3.537954e-03       0.000000e+00      -3.533112e-03 
       0.000000e+00       5.000000e-03       0.000000e+00 
      -3.537954e-03       0.000000e+00       3.533112e-03 
       0.000000e+00      -5.000000e-03       0.000000e+00 
       1.003538e+00       0.000000e+00       9.978374e-01 
       1.000000e+00       5.000000e-03       1.001371e+00 
       9.964620e-01       0.000000e+00       1.004904e+00 
       1.000000e+00      -5.000000e-03       1.001371e+00 
       5.025017e-01      -3.535534e-03       4.981870e-01 
       5.025017e-01       3.535534e-03       4.981870e-01 
       4.974983e-01       3.535534e-03       5.031835e-01 
       4.974983e-01      -3.535534e-03       5.031835e-01 
       9.974983e-01      -3.535534e-03       9.988722e-01 
       9.974983e-01       3.535534e-03       9.988722e-01 
       1.002502e+00       3.535534e-03       1.003869e+00 
       1.002502e+00      -3.535534e-03       1.003869e+00 
       1.997498e+00      -3.535534e-03      -2.498287e-03 
       1.997498e+00       3.535534e-03      -2.498287e-03 
       2.002502e+00       3.535534e-03       2.498287e-03 
       2.002502e+00      -3.535534e-03       2.498287e-03 
       9.964620e-01       0.000000e+00       9.978374e-01 
       1.000000e+00       5.000000e-03       1.001371e+00 
       1.003538e+00       0.000000e+00       1.004904e+00 
       1.000000e+00      -5.000000e-03       1.001371e+00 
       1.996462e+00       0.000000e+00      -3.533112e-03 
       2.000000e+00       5.000000e-03       0.000000e+00 
       2.003538e+00       0.000000e+00       3.533112e-03 
       2.000000e+00      -5.000000e-03       0.000000e+00 
       1.497498e+00      -3.535534e-03       4.981870e-01 
       1.497498e+00       3.535534e-03       4.981870e-01 
       1.502502e+00       3.535534e-03       5.031835e-01 
       1.502502e+00      -3.535534e-03       5.031835e-01 

CELLS 2 42
20 0 1 2 3 4 5 6 7 8 9 10 11 12 13 14 15 16 17 18 19 
20 20 21 22 23 24 25 26 27 28 29 30 31 32 33 34 35 36 37 38 39 

CELL_TYPES 2
 25
 25

POINT_DATA        40 
VECTORS Displacements float
       1.71136886e-06       0.00000000e+00       1.71254118e-06 
       1.71136886e-06       0.00000000e+00       1.71254118e-06 
      -1.71136886e-06       0.00000000e+00      -1.71254118e-06 
      -1.71136886e-06       0.00000000e+00      -1.71254118e-06 
       1.71136886e-06       0.00000000e+00       1.37221537e-03 
       1.71136886e-06       0.00000000e+00       1.37221537e-03 
      -1.71136886e-06       0.00000000e+00       1.36879029e-03 
      -1.71136886e-06       0.00000000e+00       1.36879029e-03 
       2.42024106e-06       0.00000000e+00       2.42189896e-06 
       0.00000000e+00       0.00000000e+00       0.00000000e+00 
      -2.42024106e-06       0.00000000e+00      -2.42189896e-06 
       0.00000000e+00       0.00000000e+00       0.00000000e+00 
       2.42024106e-06       0.00000000e+00       1.37292473e-03 
       0.00000000e+00       0.00000000e+00       1.37050283e-03 
      -2.42024106e-06       0.00000000e+00       1.36808093e-03 
       0.00000000e+00       0.00000000e+00       1.37050283e-03 
       1.71136886e-06       0.00000000e+00       6.86963958e-04 
       1.71136886e-06       0.00000000e+00       6.86963958e-04 
      -1.71136886e-06       0.00000000e+00       6.83538876e-04 
      -1.71136886e-06       0.00000000e+00       6.83538876e-04 
      -1.71136886e-06       0.00000000e+00       1.37221537e-03 
      -1.71136886e-06       0.00000000e+00       1.37221537e-03 
       1.71136886e-06       0.00000000e+00       1.36879029e-03 
       1.71136886e-06       0.00000000e+00       1.36879029e-03 
      -1.71136886e-06       0.00000000e+00       1.71254118e-06 
      -1.71136886e-06       0.00000000e+00       1.71254118e-06 
       1.71136886e-06       0.00000000e+00      -1.71254118e-06 
       1.71136886e-06       0.00000000e+00      -1.71254118e-06 
      -2.42024106e-06       0.00000000e+00       1.37292473e-03 
       0.00000000e+00       0.00000000e+00       1.37050283e-03 
       2.42024106e-06       0.00000000e+00       1.36808093e-03 
       0.00000000e+00       0.00000000e+00       1.37050283e-03 
      -2.42024106e-06       0.00000000e+00       2.42189896e-06 
       0.00000000e+00       0.00000000e+00       0.00000000e+00 
       2.42024106e-06       0.00000000e+00      -2.42189896e-06 
       0.00000000e+00       0.00000000e+00       0.00000000e+00 
      -1.71136886e-06       0.00000000e+00       6.86963958e-04 
      -1.71136886e-06       0.00000000e+00       6.86963958e-04 
       1.71136886e-06       0.00000000e+00       6.83538876e-04 
       1.71136886e-06       0.00000000e+00       6.83538876e-04 

