# vtk DataFile Version 2.0
./output/static_plastic_von_mises_truss/static_plastic_von_mises_truss_0214.vtk
ASCII
DATASET UNSTRUCTURED_GRID

POINTS 40 float
       2.506141e-03      -3.535534e-03      -2.493843e-03 
       2.506141e-03       3.535534e-03      -2.493843e-03 
      -2.506141e-03       3.535534e-03       2.493843e-03 
      -2.506141e-03      -3.535534e-03       2.493843e-03 
       1.002506e+00      -3.535534e-03       1.002437e+00 
       1.002506e+00       3.535534e-03       1.002437e+00 
       9.974939e-01       3.535534e-03       1.007425e+00 
       9.974939e-01      -3.535534e-03       1.007425e+00 
       3.544219e-03       0.000000e+00      -3.526827e-03 
       0.000000e+00       5.000000e-03       0.000000e+00 
      -3.544219e-03       0.000000e+00       3.526827e-03 
       0.000000e+00      -5.000000e-03       0.000000e+00 
       1.003544e+00       0.000000e+00       1.001404e+00 
       1.000000e+00       5.000000e-03       1.004931e+00 
       9.964558e-01       0.000000e+00       1.008458e+00 
       1.000000e+00      -5.000000e-03       1.004931e+00 
       5.025061e-01      -3.535534e-03       4.999718e-01 
       5.025061e-01       3.535534e-03       4.999718e-01 
       4.974939e-01       3.535534e-03       5.049595e-01 
       4.974939e-01      -3.535534e-03       5.049595e-01 
       9.974939e-01      -3.535534e-03       1.002437e+00 
       9.974939e-01       3.535534e-03       1.002437e+00 
       1.002506e+00       3.535534e-03       1.007425e+00 
       1.002506e+00      -3.535534e-03       1.007425e+00 
       1.997494e+00      -3.535534e-03      -2.493843e-03 
       1.997494e+00       3.535534e-03      -2.493843e-03 
       2.002506e+00       3.535534e-03       2.493843e-03 
       2.002506e+00      -3.535534e-03       2.493843e-03 
       9.964558e-01       0.000000e+00       1.001404e+00 
       1.000000e+00       5.000000e-03       1.004931e+00 
       1.003544e+00       0.000000e+00       1.008458e+00 
       1.000000e+00      -5.000000e-03       1.004931e+00 
       1.996456e+00       0.000000e+00      -3.526827e-03 
       2.000000e+00       5.000000e-03       0.000000e+00 
       2.003544e+00       0.000000e+00       3.526827e-03 
       2.000000e+00      -5.000000e-03       0.000000e+00 
       1.497494e+00      -3.535534e-03       4.999718e-01 
       1.497494e+00       3.535534e-03       4.999718e-01 
       1.502506e+00       3.535534e-03       5.049595e-01 
       1.502506e+00      -3.535534e-03       5.049595e-01 

CELLS 2 42
20 0 1 2 3 4 5 6 7 8 9 10 11 12 13 14 15 16 17 18 19 
20 20 21 22 23 24 25 26 27 28 29 30 31 32 33 34 35 36 37 38 39 

CELL_TYPES 2
 25
 25

POINT_DATA        40 
VECTORS Displacements float
       6.14141691e-06       0.00000000e+00       6.15654091e-06 
       6.14141691e-06       0.00000000e+00       6.15654091e-06 
      -6.14141691e-06       0.00000000e+00      -6.15654091e-06 
      -6.14141691e-06       0.00000000e+00      -6.15654091e-06 
       6.14141691e-06       0.00000000e+00       4.93748364e-03 
       6.14141691e-06       0.00000000e+00       4.93748364e-03 
      -6.14141691e-06       0.00000000e+00       4.92517056e-03 
      -6.14141691e-06       0.00000000e+00       4.92517056e-03 
       8.68527509e-06       0.00000000e+00       8.70666366e-06 
       0.00000000e+00       0.00000000e+00       0.00000000e+00 
      -8.68527509e-06       0.00000000e+00      -8.70666366e-06 
       0.00000000e+00       0.00000000e+00       0.00000000e+00 
       8.68527509e-06       0.00000000e+00       4.94003376e-03 
       0.00000000e+00       0.00000000e+00       4.93132710e-03 
      -8.68527509e-06       0.00000000e+00       4.92262043e-03 
       0.00000000e+00       0.00000000e+00       4.93132710e-03 
       6.14141691e-06       0.00000000e+00       2.47182009e-03 
       6.14141691e-06       0.00000000e+00       2.47182009e-03 
      -6.14141691e-06       0.00000000e+00       2.45950701e-03 
      -6.14141691e-06       0.00000000e+00       2.45950701e-03 
      -6.14141691e-06       0.00000000e+00       4.93748364e-03 
      -6.14141691e-06       0.00000000e+00       4.93748364e-03 
       6.14141691e-06       0.00000000e+00       4.92517056e-03 
       6.14141691e-06       0.00000000e+00       4.92517056e-03 
      -6.14141691e-06       0.00000000e+00       6.15654091e-06 
      -6.14141691e-06       0.00000000e+00       6.15654091e-06 
       6.14141691e-06       0.00000000e+00      -6.15654091e-06 
       6.14141691e-06       0.00000000e+00      -6.15654091e-06 
      -8.68527509e-06       0.00000000e+00       4.94003376e-03 
       0.00000000e+00       0.00000000e+00       4.93132710e-03 
       8.68527509e-06       0.00000000e+00       4.92262043e-03 
       0.00000000e+00       0.00000000e+00       4.93132710e-03 
      -8.68527509e-06       0.00000000e+00       8.70666366e-06 
       0.00000000e+00       0.00000000e+00       0.00000000e+00 
       8.68527509e-06       0.00000000e+00      -8.70666366e-06 
       0.00000000e+00       0.00000000e+00       0.00000000e+00 
      -6.14141691e-06       0.00000000e+00       2.47182009e-03 
      -6.14141691e-06       0.00000000e+00       2.47182009e-03 
       6.14141691e-06       0.00000000e+00       2.45950701e-03 
       6.14141691e-06       0.00000000e+00       2.45950701e-03 

