# vtk DataFile Version 2.0
./output/static_plastic_von_mises_truss/static_plastic_von_mises_truss_0076.vtk
ASCII
DATASET UNSTRUCTURED_GRID

POINTS 40 float
       2.504366e-03      -3.535534e-03      -2.495626e-03 
       2.504366e-03       3.535534e-03      -2.495626e-03 
      -2.504366e-03       3.535534e-03       2.495626e-03 
      -2.504366e-03      -3.535534e-03       2.495626e-03 
       1.002504e+00      -3.535534e-03       1.001006e+00 
       1.002504e+00       3.535534e-03       1.001006e+00 
       9.974956e-01       3.535534e-03       1.005998e+00 
       9.974956e-01      -3.535534e-03       1.005998e+00 
       3.541709e-03       0.000000e+00      -3.529348e-03 
       0.000000e+00       5.000000e-03       0.000000e+00 
      -3.541709e-03       0.000000e+00       3.529348e-03 
       0.000000e+00      -5.000000e-03       0.000000e+00 
       1.003542e+00       0.000000e+00       9.999728e-01 
       1.000000e+00       5.000000e-03       1.003502e+00 
       9.964583e-01       0.000000e+00       1.007031e+00 
       1.000000e+00      -5.000000e-03       1.003502e+00 
       5.025044e-01      -3.535534e-03       4.992554e-01 
       5.025044e-01       3.535534e-03       4.992554e-01 
       4.974956e-01       3.535534e-03       5.042467e-01 
       4.974956e-01      -3.535534e-03       5.042467e-01 
       9.974956e-01      -3.535534e-03       1.001006e+00 
       9.974956e-01       3.535534e-03       1.001006e+00 
       1.002504e+00       3.535534e-03       1.005998e+00 
       1.002504e+00      -3.535534e-03       1.005998e+00 
       1.997496e+00      -3.535534e-03      -2.495626e-03 
       1.997496e+00       3.535534e-03      -2.495626e-03 
       2.002504e+00       3.535534e-03       2.495626e-03 
       2.002504e+00      -3.535534e-03       2.495626e-03 
       9.964583e-01       0.000000e+00       9.999728e-01 
       1.000000e+00       5.000000e-03       1.003502e+00 
       1.003542e+00       0.000000e+00       1.007031e+00 
       1.000000e+00      -5.000000e-03       1.003502e+00 
       1.996458e+00       0.000000e+00      -3.529348e-03 
       2.000000e+00       5.000000e-03       0.000000e+00 
       2.003542e+00       0.000000e+00       3.529348e-03 
       2.000000e+00      -5.000000e-03       0.000000e+00 
       1.497496e+00      -3.535534e-03       4.992554e-01 
       1.497496e+00       3.535534e-03       4.992554e-01 
       1.502504e+00       3.535534e-03       5.042467e-01 
       1.502504e+00      -3.535534e-03       5.042467e-01 

CELLS 2 42
20 0 1 2 3 4 5 6 7 8 9 10 11 12 13 14 15 16 17 18 19 
20 20 21 22 23 24 25 26 27 28 29 30 31 32 33 34 35 36 37 38 39 

CELL_TYPES 2
 25
 25

POINT_DATA        40 
VECTORS Displacements float
       4.36615615e-06       0.00000000e+00       4.37379483e-06 
       4.36615615e-06       0.00000000e+00       4.37379483e-06 
      -4.36615615e-06       0.00000000e+00      -4.37379483e-06 
      -4.36615615e-06       0.00000000e+00      -4.37379483e-06 
       4.36615615e-06       0.00000000e+00       3.50648119e-03 
       4.36615615e-06       0.00000000e+00       3.50648119e-03 
      -4.36615615e-06       0.00000000e+00       3.49773360e-03 
      -4.36615615e-06       0.00000000e+00       3.49773360e-03 
       6.17467724e-06       0.00000000e+00       6.18547997e-06 
       0.00000000e+00       0.00000000e+00       0.00000000e+00 
      -6.17467724e-06       0.00000000e+00      -6.18547997e-06 
       0.00000000e+00       0.00000000e+00       0.00000000e+00 
       6.17467724e-06       0.00000000e+00       3.50829287e-03 
      -1.11022302e-16       0.00000000e+00       3.50210739e-03 
      -6.17467724e-06       0.00000000e+00       3.49592191e-03 
      -1.11022302e-16       0.00000000e+00       3.50210739e-03 
       4.36615615e-06       0.00000000e+00       1.75542749e-03 
       4.36615615e-06       0.00000000e+00       1.75542749e-03 
      -4.36615615e-06       0.00000000e+00       1.74667990e-03 
      -4.36615615e-06       0.00000000e+00       1.74667990e-03 
      -4.36615615e-06       0.00000000e+00       3.50648119e-03 
      -4.36615615e-06       0.00000000e+00       3.50648119e-03 
       4.36615615e-06       0.00000000e+00       3.49773360e-03 
       4.36615615e-06       0.00000000e+00       3.49773360e-03 
      -4.36615615e-06       0.00000000e+00       4.37379483e-06 
      -4.36615615e-06       0.00000000e+00       4.37379483e-06 
       4.36615615e-06       0.00000000e+00      -4.37379483e-06 
       4.36615615e-06       0.00000000e+00      -4.37379483e-06 
      -6.17467724e-06       0.00000000e+00       3.50829287e-03 
       0.00000000e+00       0.00000000e+00       3.50210739e-03 
       6.17467724e-06       0.00000000e+00       3.49592191e-03 
       0.00000000e+00       0.00000000e+00       3.50210739e-03 
      -6.17467724e-06       0.00000000e+00       6.18547997e-06 
       0.00000000e+00       0.00000000e+00       0.00000000e+00 
       6.17467724e-06       0.00000000e+00      -6.18547997e-06 
       0.00000000e+00       0.00000000e+00       0.00000000e+00 
      -4.36615615e-06       0.00000000e+00       1.75542749e-03 
      -4.36615615e-06       0.00000000e+00       1.75542749e-03 
       4.36615615e-06       0.00000000e+00       1.74667990e-03 
       4.36615615e-06       0.00000000e+00       1.74667990e-03 

