# vtk DataFile Version 2.0
./output/static_plastic_von_mises_truss/static_plastic_von_mises_truss_0239.vtk
ASCII
DATASET UNSTRUCTURED_GRID

POINTS 40 float
       2.503945e-03      -3.535534e-03      -2.496049e-03 
       2.503945e-03       3.535534e-03      -2.496049e-03 
      -2.503945e-03       3.535534e-03       2.496049e-03 
      -2.503945e-03      -3.535534e-03       2.496049e-03 
       1.002504e+00      -3.535534e-03       1.000667e+00 
       1.002504e+00       3.535534e-03       1.000667e+00 
       9.974961e-01       3.535534e-03       1.005660e+00 
       9.974961e-01      -3.535534e-03       1.005660e+00 
       3.541113e-03       0.000000e+00      -3.529946e-03 
       0.000000e+00       5.000000e-03       0.000000e+00 
      -3.541113e-03       0.000000e+00       3.529946e-03 
       0.000000e+00      -5.000000e-03       0.000000e+00 
       1.003541e+00       0.000000e+00       9.996335e-01 
       1.000000e+00       5.000000e-03       1.003163e+00 
       9.964589e-01       0.000000e+00       1.006693e+00 
       1.000000e+00      -5.000000e-03       1.003163e+00 
       5.025039e-01      -3.535534e-03       4.990857e-01 
       5.025039e-01       3.535534e-03       4.990857e-01 
       4.974961e-01       3.535534e-03       5.040778e-01 
       4.974961e-01      -3.535534e-03       5.040778e-01 
       9.974961e-01      -3.535534e-03       1.000667e+00 
       9.974961e-01       3.535534e-03       1.000667e+00 
       1.002504e+00       3.535534e-03       1.005660e+00 
       1.002504e+00      -3.535534e-03       1.005660e+00 
       1.997496e+00      -3.535534e-03      -2.496049e-03 
       1.997496e+00       3.535534e-03      -2.496049e-03 
       2.002504e+00       3.535534e-03       2.496049e-03 
       2.002504e+00      -3.535534e-03       2.496049e-03 
       9.964589e-01       0.000000e+00       9.996335e-01 
       1.000000e+00       5.000000e-03       1.003163e+00 
       1.003541e+00       0.000000e+00       1.006693e+00 
       1.000000e+00      -5.000000e-03       1.003163e+00 
       1.996459e+00       0.000000e+00      -3.529946e-03 
       2.000000e+00       5.000000e-03       0.000000e+00 
       2.003541e+00       0.000000e+00       3.529946e-03 
       2.000000e+00      -5.000000e-03       0.000000e+00 
       1.497496e+00      -3.535534e-03       4.990857e-01 
       1.497496e+00       3.535534e-03       4.990857e-01 
       1.502504e+00       3.535534e-03       5.040778e-01 
       1.502504e+00      -3.535534e-03       5.040778e-01 

CELLS 2 42
20 0 1 2 3 4 5 6 7 8 9 10 11 12 13 14 15 16 17 18 19 
20 20 21 22 23 24 25 26 27 28 29 30 31 32 33 34 35 36 37 38 39 

CELL_TYPES 2
 25
 25

POINT_DATA        40 
VECTORS Displacements float
       3.94498886e-06       4.33680869e-19       3.95122388e-06 
       3.94498886e-06      -4.33680869e-19       3.95122388e-06 
      -3.94498886e-06      -4.33680869e-19      -3.95122388e-06 
      -3.94498886e-06       4.33680869e-19      -3.95122388e-06 
       3.94498886e-06       4.33680869e-19       3.16743617e-03 
       3.94498886e-06      -4.33680869e-19       3.16743617e-03 
      -3.94498886e-06      -4.33680869e-19       3.15953373e-03 
      -3.94498886e-06       4.33680869e-19       3.15953373e-03 
       5.57905675e-06       0.00000000e+00       5.58787440e-06 
       0.00000000e+00      -8.67361738e-19       0.00000000e+00 
      -5.57905675e-06       0.00000000e+00      -5.58787440e-06 
       0.00000000e+00       8.67361738e-19       0.00000000e+00 
       5.57905675e-06       0.00000000e+00       3.16907282e-03 
       0.00000000e+00      -8.67361738e-19       3.16348495e-03 
      -5.57905675e-06       0.00000000e+00       3.15789708e-03 
       0.00000000e+00       8.67361738e-19       3.16348495e-03 
       3.94498886e-06       4.33680869e-19       1.58569370e-03 
       3.94498886e-06      -4.33680869e-19       1.58569370e-03 
      -3.94498886e-06      -4.33680869e-19       1.57779125e-03 
      -3.94498886e-06       4.33680869e-19       1.57779125e-03 
      -3.94498886e-06       4.33680869e-19       3.16743617e-03 
      -3.94498886e-06      -4.33680869e-19       3.16743617e-03 
       3.94498886e-06      -4.33680869e-19       3.15953373e-03 
       3.94498886e-06       4.33680869e-19       3.15953373e-03 
      -3.94498886e-06       4.33680869e-19       3.95122388e-06 
      -3.94498886e-06      -4.33680869e-19       3.95122388e-06 
       3.94498886e-06      -4.33680869e-19      -3.95122388e-06 
       3.94498886e-06       4.33680869e-19      -3.95122388e-06 
      -5.57905675e-06       0.00000000e+00       3.16907282e-03 
       0.00000000e+00      -8.67361738e-19       3.16348495e-03 
       5.57905675e-06       0.00000000e+00       3.15789708e-03 
       0.00000000e+00       8.67361738e-19       3.16348495e-03 
      -5.57905675e-06       0.00000000e+00       5.58787440e-06 
       0.00000000e+00      -8.67361738e-19       0.00000000e+00 
       5.57905675e-06       0.00000000e+00      -5.58787440e-06 
       0.00000000e+00       8.67361738e-19       0.00000000e+00 
      -3.94498886e-06       4.33680869e-19       1.58569370e-03 
      -3.94498886e-06      -4.33680869e-19       1.58569370e-03 
       3.94498886e-06      -4.33680869e-19       1.57779125e-03 
       3.94498886e-06       4.33680869e-19       1.57779125e-03 

