# vtk DataFile Version 2.0
./output/static_plastic_von_mises_truss/static_plastic_von_mises_truss_0274.vtk
ASCII
DATASET UNSTRUCTURED_GRID

POINTS 40 float
       2.500850e-03      -3.535534e-03      -2.499149e-03 
       2.500850e-03       3.535534e-03      -2.499149e-03 
      -2.500850e-03       3.535534e-03       2.499149e-03 
      -2.500850e-03      -3.535534e-03       2.499149e-03 
       1.002501e+00      -3.535534e-03       9.981815e-01 
       1.002501e+00       3.535534e-03       9.981815e-01 
       9.974991e-01       3.535534e-03       1.003180e+00 
       9.974991e-01      -3.535534e-03       1.003180e+00 
       3.536737e-03       0.000000e+00      -3.534331e-03 
       0.000000e+00       5.000000e-03       0.000000e+00 
      -3.536737e-03       0.000000e+00       3.534331e-03 
       0.000000e+00      -5.000000e-03       0.000000e+00 
       1.003537e+00       0.000000e+00       9.971463e-01 
       1.000000e+00       5.000000e-03       1.000681e+00 
       9.964633e-01       0.000000e+00       1.004215e+00 
       1.000000e+00      -5.000000e-03       1.000681e+00 
       5.025009e-01      -3.535534e-03       4.978412e-01 
       5.025009e-01       3.535534e-03       4.978412e-01 
       4.974991e-01       3.535534e-03       5.028395e-01 
       4.974991e-01      -3.535534e-03       5.028395e-01 
       9.974991e-01      -3.535534e-03       9.981815e-01 
       9.974991e-01       3.535534e-03       9.981815e-01 
       1.002501e+00       3.535534e-03       1.003180e+00 
       1.002501e+00      -3.535534e-03       1.003180e+00 
       1.997499e+00      -3.535534e-03      -2.499149e-03 
       1.997499e+00       3.535534e-03      -2.499149e-03 
       2.002501e+00       3.535534e-03       2.499149e-03 
       2.002501e+00      -3.535534e-03       2.499149e-03 
       9.964633e-01       0.000000e+00       9.971463e-01 
       1.000000e+00       5.000000e-03       1.000681e+00 
       1.003537e+00       0.000000e+00       1.004215e+00 
       1.000000e+00      -5.000000e-03       1.000681e+00 
       1.996463e+00       0.000000e+00      -3.534331e-03 
       2.000000e+00       5.000000e-03       0.000000e+00 
       2.003537e+00       0.000000e+00       3.534331e-03 
       2.000000e+00      -5.000000e-03       0.000000e+00 
       1.497499e+00      -3.535534e-03       4.978412e-01 
       1.497499e+00       3.535534e-03       4.978412e-01 
       1.502501e+00       3.535534e-03       5.028395e-01 
       1.502501e+00      -3.535534e-03       5.028395e-01 

CELLS 2 42
20 0 1 2 3 4 5 6 7 8 9 10 11 12 13 14 15 16 17 18 19 
20 20 21 22 23 24 25 26 27 28 29 30 31 32 33 34 35 36 37 38 39 

CELL_TYPES 2
 25
 25

POINT_DATA        40 
VECTORS Displacements float
       8.50380044e-07       4.33680869e-19       8.50669401e-07 
       8.50380044e-07      -4.33680869e-19       8.50669401e-07 
      -8.50380044e-07      -4.33680869e-19      -8.50669401e-07 
      -8.50380044e-07       4.33680869e-19      -8.50669401e-07 
       8.50380044e-07       4.33680869e-19       6.81502051e-04 
       8.50380044e-07      -4.33680869e-19       6.81502051e-04 
      -8.50380044e-07      -4.33680869e-19       6.79800712e-04 
      -8.50380044e-07       4.33680869e-19       6.79800712e-04 
       1.20261899e-06       0.00000000e+00       1.20302820e-06 
       0.00000000e+00      -8.67361738e-19       0.00000000e+00 
      -1.20261899e-06       0.00000000e+00      -1.20302820e-06 
       0.00000000e+00       8.67361738e-19       0.00000000e+00 
       1.20261899e-06       0.00000000e+00       6.81854410e-04 
       0.00000000e+00      -8.67361738e-19       6.80651382e-04 
      -1.20261899e-06       0.00000000e+00       6.79448354e-04 
       0.00000000e+00       8.67361738e-19       6.80651382e-04 
       8.50380044e-07       4.33680869e-19       3.41176360e-04 
       8.50380044e-07      -4.33680869e-19       3.41176360e-04 
      -8.50380044e-07      -4.33680869e-19       3.39475021e-04 
      -8.50380044e-07       4.33680869e-19       3.39475021e-04 
      -8.50380044e-07       4.33680869e-19       6.81502051e-04 
      -8.50380044e-07      -4.33680869e-19       6.81502051e-04 
       8.50380044e-07      -4.33680869e-19       6.79800712e-04 
       8.50380044e-07       4.33680869e-19       6.79800712e-04 
      -8.50380044e-07       4.33680869e-19       8.50669401e-07 
      -8.50380044e-07      -4.33680869e-19       8.50669401e-07 
       8.50380044e-07      -4.33680869e-19      -8.50669401e-07 
       8.50380044e-07       4.33680869e-19      -8.50669401e-07 
      -1.20261899e-06       0.00000000e+00       6.81854410e-04 
       0.00000000e+00      -8.67361738e-19       6.80651382e-04 
       1.20261899e-06       0.00000000e+00       6.79448354e-04 
       0.00000000e+00       8.67361738e-19       6.80651382e-04 
      -1.20261899e-06       0.00000000e+00       1.20302820e-06 
       0.00000000e+00      -8.67361738e-19       0.00000000e+00 
       1.20261899e-06       0.00000000e+00      -1.20302820e-06 
       0.00000000e+00       8.67361738e-19       0.00000000e+00 
      -8.50380044e-07       4.33680869e-19       3.41176360e-04 
      -8.50380044e-07      -4.33680869e-19       3.41176360e-04 
       8.50380044e-07      -4.33680869e-19       3.39475021e-04 
       8.50380044e-07       4.33680869e-19       3.39475021e-04 

