# vtk DataFile Version 2.0
./output/static_plastic_von_mises_truss/static_plastic_von_mises_truss_0218.vtk
ASCII
DATASET UNSTRUCTURED_GRID

POINTS 40 float
       2.505791e-03      -3.535534e-03      -2.494196e-03 
       2.505791e-03       3.535534e-03      -2.494196e-03 
      -2.505791e-03       3.535534e-03       2.494196e-03 
      -2.505791e-03      -3.535534e-03       2.494196e-03 
       1.002506e+00      -3.535534e-03       1.002155e+00 
       1.002506e+00       3.535534e-03       1.002155e+00 
       9.974942e-01       3.535534e-03       1.007143e+00 
       9.974942e-01      -3.535534e-03       1.007143e+00 
       3.543723e-03       0.000000e+00      -3.527326e-03 
       0.000000e+00       5.000000e-03       0.000000e+00 
      -3.543723e-03       0.000000e+00       3.527326e-03 
       0.000000e+00      -5.000000e-03       0.000000e+00 
       1.003544e+00       0.000000e+00       1.001121e+00 
       1.000000e+00       5.000000e-03       1.004649e+00 
       9.964563e-01       0.000000e+00       1.008176e+00 
       1.000000e+00      -5.000000e-03       1.004649e+00 
       5.025058e-01      -3.535534e-03       4.998302e-01 
       5.025058e-01       3.535534e-03       4.998302e-01 
       4.974942e-01       3.535534e-03       5.048186e-01 
       4.974942e-01      -3.535534e-03       5.048186e-01 
       9.974942e-01      -3.535534e-03       1.002155e+00 
       9.974942e-01       3.535534e-03       1.002155e+00 
       1.002506e+00       3.535534e-03       1.007143e+00 
       1.002506e+00      -3.535534e-03       1.007143e+00 
       1.997494e+00      -3.535534e-03      -2.494196e-03 
       1.997494e+00       3.535534e-03      -2.494196e-03 
       2.002506e+00       3.535534e-03       2.494196e-03 
       2.002506e+00      -3.535534e-03       2.494196e-03 
       9.964563e-01       0.000000e+00       1.001121e+00 
       1.000000e+00       5.000000e-03       1.004649e+00 
       1.003544e+00       0.000000e+00       1.008176e+00 
       1.000000e+00      -5.000000e-03       1.004649e+00 
       1.996456e+00       0.000000e+00      -3.527326e-03 
       2.000000e+00       5.000000e-03       0.000000e+00 
       2.003544e+00       0.000000e+00       3.527326e-03 
       2.000000e+00      -5.000000e-03       0.000000e+00 
       1.497494e+00      -3.535534e-03       4.998302e-01 
       1.497494e+00       3.535534e-03       4.998302e-01 
       1.502506e+00       3.535534e-03       5.048186e-01 
       1.502506e+00      -3.535534e-03       5.048186e-01 

CELLS 2 42
20 0 1 2 3 4 5 6 7 8 9 10 11 12 13 14 15 16 17 18 19 
20 20 21 22 23 24 25 26 27 28 29 30 31 32 33 34 35 36 37 38 39 

CELL_TYPES 2
 25
 25

POINT_DATA        40 
VECTORS Displacements float
       5.79076663e-06       0.00000000e+00       5.80421100e-06 
       5.79076663e-06       0.00000000e+00       5.80421100e-06 
      -5.79076663e-06       0.00000000e+00      -5.80421100e-06 
      -5.79076663e-06       0.00000000e+00      -5.80421100e-06 
       5.79076663e-06       0.00000000e+00       4.65458827e-03 
       5.79076663e-06       0.00000000e+00       4.65458827e-03 
      -5.79076663e-06       0.00000000e+00       4.64297985e-03 
      -5.79076663e-06       0.00000000e+00       4.64297985e-03 
       8.18938071e-06       0.00000000e+00       8.20839392e-06 
       0.00000000e+00       0.00000000e+00       0.00000000e+00 
      -8.18938071e-06       0.00000000e+00      -8.20839392e-06 
       0.00000000e+00       0.00000000e+00       0.00000000e+00 
       8.18938071e-06       0.00000000e+00       4.65699246e-03 
       0.00000000e+00       0.00000000e+00       4.64878406e-03 
      -8.18938071e-06       0.00000000e+00       4.64057567e-03 
       0.00000000e+00       0.00000000e+00       4.64878406e-03 
       5.79076663e-06       0.00000000e+00       2.33019624e-03 
       5.79076663e-06       0.00000000e+00       2.33019624e-03 
      -5.79076663e-06       0.00000000e+00       2.31858782e-03 
      -5.79076663e-06       0.00000000e+00       2.31858782e-03 
      -5.79076663e-06       0.00000000e+00       4.65458827e-03 
      -5.79076663e-06       0.00000000e+00       4.65458827e-03 
       5.79076663e-06       0.00000000e+00       4.64297985e-03 
       5.79076663e-06       0.00000000e+00       4.64297985e-03 
      -5.79076663e-06       0.00000000e+00       5.80421100e-06 
      -5.79076663e-06       0.00000000e+00       5.80421100e-06 
       5.79076663e-06       0.00000000e+00      -5.80421100e-06 
       5.79076663e-06       0.00000000e+00      -5.80421100e-06 
      -8.18938071e-06       0.00000000e+00       4.65699246e-03 
       0.00000000e+00       0.00000000e+00       4.64878406e-03 
       8.18938071e-06       0.00000000e+00       4.64057567e-03 
       0.00000000e+00       0.00000000e+00       4.64878406e-03 
      -8.18938071e-06       0.00000000e+00       8.20839392e-06 
       0.00000000e+00       0.00000000e+00       0.00000000e+00 
       8.18938071e-06       0.00000000e+00      -8.20839392e-06 
       0.00000000e+00       0.00000000e+00       0.00000000e+00 
      -5.79076663e-06       0.00000000e+00       2.33019624e-03 
      -5.79076663e-06       0.00000000e+00       2.33019624e-03 
       5.79076663e-06       0.00000000e+00       2.31858782e-03 
       5.79076663e-06       0.00000000e+00       2.31858782e-03 

