# vtk DataFile Version 2.0
./output/static_plastic_von_mises_truss/static_plastic_von_mises_truss_0203.vtk
ASCII
DATASET UNSTRUCTURED_GRID

POINTS 40 float
       2.499909e-03      -3.535534e-03      -2.500091e-03 
       2.499909e-03       3.535534e-03      -2.500091e-03 
      -2.499909e-03       3.535534e-03       2.500091e-03 
      -2.499909e-03      -3.535534e-03       2.500091e-03 
       1.002500e+00      -3.535534e-03       9.974272e-01 
       1.002500e+00       3.535534e-03       9.974272e-01 
       9.975001e-01       3.535534e-03       1.002427e+00 
       9.975001e-01      -3.535534e-03       1.002427e+00 
       3.535405e-03       0.000000e+00      -3.535662e-03 
       0.000000e+00       5.000000e-03       0.000000e+00 
      -3.535405e-03       0.000000e+00       3.535662e-03 
       0.000000e+00      -5.000000e-03       0.000000e+00 
       1.003535e+00       0.000000e+00       9.963917e-01 
       1.000000e+00       5.000000e-03       9.999273e-01 
       9.964646e-01       0.000000e+00       1.003463e+00 
       1.000000e+00      -5.000000e-03       9.999273e-01 
       5.024999e-01      -3.535534e-03       4.974636e-01 
       5.024999e-01       3.535534e-03       4.974636e-01 
       4.975001e-01       3.535534e-03       5.024638e-01 
       4.975001e-01      -3.535534e-03       5.024638e-01 
       9.975001e-01      -3.535534e-03       9.974272e-01 
       9.975001e-01       3.535534e-03       9.974272e-01 
       1.002500e+00       3.535534e-03       1.002427e+00 
       1.002500e+00      -3.535534e-03       1.002427e+00 
       1.997500e+00      -3.535534e-03      -2.500091e-03 
       1.997500e+00       3.535534e-03      -2.500091e-03 
       2.002500e+00       3.535534e-03       2.500091e-03 
       2.002500e+00      -3.535534e-03       2.500091e-03 
       9.964646e-01       0.000000e+00       9.963917e-01 
       1.000000e+00       5.000000e-03       9.999273e-01 
       1.003535e+00       0.000000e+00       1.003463e+00 
       1.000000e+00      -5.000000e-03       9.999273e-01 
       1.996465e+00       0.000000e+00      -3.535662e-03 
       2.000000e+00       5.000000e-03       0.000000e+00 
       2.003535e+00       0.000000e+00       3.535662e-03 
       2.000000e+00      -5.000000e-03       0.000000e+00 
       1.497500e+00      -3.535534e-03       4.974636e-01 
       1.497500e+00       3.535534e-03       4.974636e-01 
       1.502500e+00       3.535534e-03       5.024638e-01 
       1.502500e+00      -3.535534e-03       5.024638e-01 

CELLS 2 42
20 0 1 2 3 4 5 6 7 8 9 10 11 12 13 14 15 16 17 18 19 
20 20 21 22 23 24 25 26 27 28 29 30 31 32 33 34 35 36 37 38 39 

CELL_TYPES 2
 25
 25

POINT_DATA        40 
VECTORS Displacements float
      -9.08351355e-08       0.00000000e+00      -9.08318352e-08 
      -9.08351355e-08       0.00000000e+00      -9.08318352e-08 
       9.08351355e-08       0.00000000e+00       9.08318352e-08 
       9.08351355e-08       0.00000000e+00       9.08318352e-08 
      -9.08351354e-08       0.00000000e+00      -7.27549800e-05 
      -9.08351354e-08       0.00000000e+00      -7.27549800e-05 
       9.08351354e-08       0.00000000e+00      -7.25733163e-05 
       9.08351354e-08       0.00000000e+00      -7.25733163e-05 
      -1.28460281e-07       0.00000000e+00      -1.28455613e-07 
       0.00000000e+00       0.00000000e+00       0.00000000e+00 
       1.28460281e-07       0.00000000e+00       1.28455613e-07 
       0.00000000e+00       0.00000000e+00       0.00000000e+00 
      -1.28460280e-07       0.00000000e+00      -7.27926038e-05 
       0.00000000e+00       0.00000000e+00      -7.26641482e-05 
       1.28460281e-07       0.00000000e+00      -7.25356926e-05 
       0.00000000e+00       0.00000000e+00      -7.26641482e-05 
      -9.08351354e-08       0.00000000e+00      -3.64229059e-05 
      -9.08351354e-08       0.00000000e+00      -3.64229059e-05 
       9.08351355e-08       0.00000000e+00      -3.62412423e-05 
       9.08351355e-08       0.00000000e+00      -3.62412423e-05 
       9.08351354e-08       0.00000000e+00      -7.27549800e-05 
       9.08351354e-08       0.00000000e+00      -7.27549800e-05 
      -9.08351354e-08       0.00000000e+00      -7.25733163e-05 
      -9.08351354e-08       0.00000000e+00      -7.25733163e-05 
       9.08351354e-08       0.00000000e+00      -9.08318352e-08 
       9.08351354e-08       0.00000000e+00      -9.08318352e-08 
      -9.08351354e-08       0.00000000e+00       9.08318353e-08 
      -9.08351354e-08       0.00000000e+00       9.08318353e-08 
       1.28460281e-07       0.00000000e+00      -7.27926038e-05 
       0.00000000e+00       0.00000000e+00      -7.26641482e-05 
      -1.28460280e-07       0.00000000e+00      -7.25356926e-05 
       0.00000000e+00       0.00000000e+00      -7.26641482e-05 
       1.28460280e-07       0.00000000e+00      -1.28455613e-07 
       0.00000000e+00       0.00000000e+00       0.00000000e+00 
      -1.28460280e-07       0.00000000e+00       1.28455613e-07 
       0.00000000e+00       0.00000000e+00       0.00000000e+00 
       9.08351354e-08       0.00000000e+00      -3.64229059e-05 
       9.08351354e-08       0.00000000e+00      -3.64229059e-05 
      -9.08351354e-08       0.00000000e+00      -3.62412423e-05 
      -9.08351354e-08       0.00000000e+00      -3.62412423e-05 

