# vtk DataFile Version 2.0
./output/static_plastic_von_mises_truss/static_plastic_von_mises_truss_0146.vtk
ASCII
DATASET UNSTRUCTURED_GRID

POINTS 40 float
       2.494882e-03      -3.535534e-03      -2.505107e-03 
       2.494882e-03       3.535534e-03      -2.505107e-03 
      -2.494882e-03       3.535534e-03       2.505107e-03 
      -2.494882e-03      -3.535534e-03       2.505107e-03 
       1.002495e+00      -3.535534e-03       9.934132e-01 
       1.002495e+00       3.535534e-03       9.934132e-01 
       9.975051e-01       3.535534e-03       9.984234e-01 
       9.975051e-01      -3.535534e-03       9.984234e-01 
       3.528296e-03       0.000000e+00      -3.542757e-03 
       0.000000e+00       5.000000e-03       0.000000e+00 
      -3.528296e-03       0.000000e+00       3.542757e-03 
       0.000000e+00      -5.000000e-03       0.000000e+00 
       1.003528e+00       0.000000e+00       9.923755e-01 
       1.000000e+00       5.000000e-03       9.959183e-01 
       9.964717e-01       0.000000e+00       9.994610e-01 
       1.000000e+00      -5.000000e-03       9.959183e-01 
       5.024949e-01      -3.535534e-03       4.954540e-01 
       5.024949e-01       3.535534e-03       4.954540e-01 
       4.975051e-01       3.535534e-03       5.004642e-01 
       4.975051e-01      -3.535534e-03       5.004642e-01 
       9.975051e-01      -3.535534e-03       9.934132e-01 
       9.975051e-01       3.535534e-03       9.934132e-01 
       1.002495e+00       3.535534e-03       9.984234e-01 
       1.002495e+00      -3.535534e-03       9.984234e-01 
       1.997505e+00      -3.535534e-03      -2.505107e-03 
       1.997505e+00       3.535534e-03      -2.505107e-03 
       2.002495e+00       3.535534e-03       2.505107e-03 
       2.002495e+00      -3.535534e-03       2.505107e-03 
       9.964717e-01       0.000000e+00       9.923755e-01 
       1.000000e+00       5.000000e-03       9.959183e-01 
       1.003528e+00       0.000000e+00       9.994610e-01 
       1.000000e+00      -5.000000e-03       9.959183e-01 
       1.996472e+00       0.000000e+00      -3.542757e-03 
       2.000000e+00       5.000000e-03       0.000000e+00 
       2.003528e+00       0.000000e+00       3.542757e-03 
       2.000000e+00      -5.000000e-03       0.000000e+00 
       1.497505e+00      -3.535534e-03       4.954540e-01 
       1.497505e+00       3.535534e-03       4.954540e-01 
       1.502495e+00       3.535534e-03       5.004642e-01 
       1.502495e+00      -3.535534e-03       5.004642e-01 

CELLS 2 42
20 0 1 2 3 4 5 6 7 8 9 10 11 12 13 14 15 16 17 18 19 
20 20 21 22 23 24 25 26 27 28 29 30 31 32 33 34 35 36 37 38 39 

CELL_TYPES 2
 25
 25

POINT_DATA        40 
VECTORS Displacements float
      -5.11781933e-06      -8.67361738e-19      -5.10736388e-06 
      -5.11781933e-06       8.67361738e-19      -5.10736388e-06 
       5.11781933e-06       8.67361738e-19       5.10736388e-06 
       5.11781933e-06      -8.67361738e-19       5.10736388e-06 
      -5.11781933e-06      -8.67361738e-19      -4.08684188e-03 
      -5.11781933e-06       8.67361738e-19      -4.08684188e-03 
       5.11781933e-06       8.67361738e-19      -4.07662716e-03 
       5.11781933e-06      -8.67361738e-19      -4.07662716e-03 
      -7.23768950e-06       0.00000000e+00      -7.22290326e-06 
       0.00000000e+00       8.67361738e-19       0.00000000e+00 
       7.23768950e-06       0.00000000e+00       7.22290326e-06 
       0.00000000e+00      -8.67361738e-19       0.00000000e+00 
      -7.23768950e-06       0.00000000e+00      -4.08895742e-03 
       0.00000000e+00       8.67361738e-19      -4.08173452e-03 
       7.23768950e-06       0.00000000e+00      -4.07451162e-03 
       0.00000000e+00      -8.67361738e-19      -4.08173452e-03 
      -5.11781933e-06      -8.67361738e-19      -2.04597462e-03 
      -5.11781933e-06       8.67361738e-19      -2.04597462e-03 
       5.11781933e-06       8.67361738e-19      -2.03575990e-03 
       5.11781933e-06      -8.67361738e-19      -2.03575990e-03 
       5.11781933e-06      -8.67361738e-19      -4.08684188e-03 
       5.11781933e-06       8.67361738e-19      -4.08684188e-03 
      -5.11781933e-06       8.67361738e-19      -4.07662716e-03 
      -5.11781933e-06      -8.67361738e-19      -4.07662716e-03 
       5.11781933e-06      -8.67361738e-19      -5.10736388e-06 
       5.11781933e-06       8.67361738e-19      -5.10736388e-06 
      -5.11781933e-06       8.67361738e-19       5.10736388e-06 
      -5.11781933e-06      -8.67361738e-19       5.10736388e-06 
       7.23768950e-06       0.00000000e+00      -4.08895742e-03 
       0.00000000e+00       8.67361738e-19      -4.08173452e-03 
      -7.23768950e-06       0.00000000e+00      -4.07451162e-03 
       0.00000000e+00      -8.67361738e-19      -4.08173452e-03 
       7.23768950e-06       0.00000000e+00      -7.22290326e-06 
       0.00000000e+00       8.67361738e-19       0.00000000e+00 
      -7.23768950e-06       0.00000000e+00       7.22290326e-06 
       0.00000000e+00      -8.67361738e-19       0.00000000e+00 
       5.11781933e-06      -8.67361738e-19      -2.04597462e-03 
       5.11781933e-06       8.67361738e-19      -2.04597462e-03 
      -5.11781933e-06       8.67361738e-19      -2.03575990e-03 
      -5.11781933e-06      -8.67361738e-19      -2.03575990e-03 

