# vtk DataFile Version 2.0
./output/static_plastic_von_mises_truss/static_plastic_von_mises_truss_0224.vtk
ASCII
DATASET UNSTRUCTURED_GRID

POINTS 40 float
       2.505264e-03      -3.535534e-03      -2.494725e-03 
       2.505264e-03       3.535534e-03      -2.494725e-03 
      -2.505264e-03       3.535534e-03       2.494725e-03 
      -2.505264e-03      -3.535534e-03       2.494725e-03 
       1.002505e+00      -3.535534e-03       1.001730e+00 
       1.002505e+00       3.535534e-03       1.001730e+00 
       9.974947e-01       3.535534e-03       1.006719e+00 
       9.974947e-01      -3.535534e-03       1.006719e+00 
       3.542979e-03       0.000000e+00      -3.528073e-03 
       0.000000e+00       5.000000e-03       0.000000e+00 
      -3.542979e-03       0.000000e+00       3.528073e-03 
       0.000000e+00      -5.000000e-03       0.000000e+00 
       1.003543e+00       0.000000e+00       1.000697e+00 
       1.000000e+00       5.000000e-03       1.004225e+00 
       9.964570e-01       0.000000e+00       1.007753e+00 
       1.000000e+00      -5.000000e-03       1.004225e+00 
       5.025053e-01      -3.535534e-03       4.996176e-01 
       5.025053e-01       3.535534e-03       4.996176e-01 
       4.974947e-01       3.535534e-03       5.046071e-01 
       4.974947e-01      -3.535534e-03       5.046071e-01 
       9.974947e-01      -3.535534e-03       1.001730e+00 
       9.974947e-01       3.535534e-03       1.001730e+00 
       1.002505e+00       3.535534e-03       1.006719e+00 
       1.002505e+00      -3.535534e-03       1.006719e+00 
       1.997495e+00      -3.535534e-03      -2.494725e-03 
       1.997495e+00       3.535534e-03      -2.494725e-03 
       2.002505e+00       3.535534e-03       2.494725e-03 
       2.002505e+00      -3.535534e-03       2.494725e-03 
       9.964570e-01       0.000000e+00       1.000697e+00 
       1.000000e+00       5.000000e-03       1.004225e+00 
       1.003543e+00       0.000000e+00       1.007753e+00 
       1.000000e+00      -5.000000e-03       1.004225e+00 
       1.996457e+00       0.000000e+00      -3.528073e-03 
       2.000000e+00       5.000000e-03       0.000000e+00 
       2.003543e+00       0.000000e+00       3.528073e-03 
       2.000000e+00      -5.000000e-03       0.000000e+00 
       1.497495e+00      -3.535534e-03       4.996176e-01 
       1.497495e+00       3.535534e-03       4.996176e-01 
       1.502505e+00       3.535534e-03       5.046071e-01 
       1.502505e+00      -3.535534e-03       5.046071e-01 

CELLS 2 42
20 0 1 2 3 4 5 6 7 8 9 10 11 12 13 14 15 16 17 18 19 
20 20 21 22 23 24 25 26 27 28 29 30 31 32 33 34 35 36 37 38 39 

CELL_TYPES 2
 25
 25

POINT_DATA        40 
VECTORS Displacements float
       5.26423652e-06      -8.67361738e-19       5.27534481e-06 
       5.26423652e-06       8.67361738e-19       5.27534481e-06 
      -5.26423652e-06       8.67361738e-19      -5.27534481e-06 
      -5.26423652e-06      -8.67361738e-19      -5.27534481e-06 
       5.26423652e-06      -8.67361738e-19       4.23002268e-03 
       5.26423652e-06       8.67361738e-19       4.23002268e-03 
      -5.26423652e-06       8.67361738e-19       4.21947199e-03 
      -5.26423652e-06      -8.67361738e-19       4.21947199e-03 
       7.44475468e-06       0.00000000e+00       7.46046418e-06 
       0.00000000e+00       8.67361738e-19       0.00000000e+00 
      -7.44475468e-06       0.00000000e+00      -7.46046418e-06 
       0.00000000e+00      -8.67361738e-19       0.00000000e+00 
       7.44475468e-06       0.00000000e+00       4.23220780e-03 
       0.00000000e+00       8.67361738e-19       4.22474733e-03 
      -7.44475468e-06       0.00000000e+00       4.21728687e-03 
       0.00000000e+00      -8.67361738e-19       4.22474733e-03 
       5.26423652e-06      -8.67361738e-19       2.11764901e-03 
       5.26423652e-06       8.67361738e-19       2.11764901e-03 
      -5.26423652e-06       8.67361738e-19       2.10709832e-03 
      -5.26423652e-06      -8.67361738e-19       2.10709832e-03 
      -5.26423652e-06      -8.67361738e-19       4.23002268e-03 
      -5.26423652e-06       8.67361738e-19       4.23002268e-03 
       5.26423652e-06       8.67361738e-19       4.21947199e-03 
       5.26423652e-06      -8.67361738e-19       4.21947199e-03 
      -5.26423652e-06      -8.67361738e-19       5.27534481e-06 
      -5.26423652e-06       8.67361738e-19       5.27534481e-06 
       5.26423652e-06       8.67361738e-19      -5.27534481e-06 
       5.26423652e-06      -8.67361738e-19      -5.27534481e-06 
      -7.44475468e-06       0.00000000e+00       4.23220780e-03 
       0.00000000e+00       8.67361738e-19       4.22474733e-03 
       7.44475468e-06       0.00000000e+00       4.21728687e-03 
       0.00000000e+00      -8.67361738e-19       4.22474733e-03 
      -7.44475468e-06       0.00000000e+00       7.46046418e-06 
       0.00000000e+00       8.67361738e-19       0.00000000e+00 
       7.44475468e-06       0.00000000e+00      -7.46046418e-06 
       0.00000000e+00      -8.67361738e-19       0.00000000e+00 
      -5.26423652e-06      -8.67361738e-19       2.11764901e-03 
      -5.26423652e-06       8.67361738e-19       2.11764901e-03 
       5.26423652e-06       8.67361738e-19       2.10709832e-03 
       5.26423652e-06      -8.67361738e-19       2.10709832e-03 

