# vtk DataFile Version 2.0
./output/static_plastic_von_mises_truss/static_plastic_von_mises_truss_0264.vtk
ASCII
DATASET UNSTRUCTURED_GRID

POINTS 40 float
       2.501737e-03      -3.535534e-03      -2.498262e-03 
       2.501737e-03       3.535534e-03      -2.498262e-03 
      -2.501737e-03       3.535534e-03       2.498262e-03 
      -2.501737e-03      -3.535534e-03       2.498262e-03 
       1.002502e+00      -3.535534e-03       9.988927e-01 
       1.002502e+00       3.535534e-03       9.988927e-01 
       9.974983e-01       3.535534e-03       1.003889e+00 
       9.974983e-01      -3.535534e-03       1.003889e+00 
       3.537990e-03       0.000000e+00      -3.533076e-03 
       0.000000e+00       5.000000e-03       0.000000e+00 
      -3.537990e-03       0.000000e+00       3.533076e-03 
       0.000000e+00      -5.000000e-03       0.000000e+00 
       1.003538e+00       0.000000e+00       9.978579e-01 
       1.000000e+00       5.000000e-03       1.001391e+00 
       9.964620e-01       0.000000e+00       1.004924e+00 
       1.000000e+00      -5.000000e-03       1.001391e+00 
       5.025017e-01      -3.535534e-03       4.981972e-01 
       5.025017e-01       3.535534e-03       4.981972e-01 
       4.974983e-01       3.535534e-03       5.031937e-01 
       4.974983e-01      -3.535534e-03       5.031937e-01 
       9.974983e-01      -3.535534e-03       9.988927e-01 
       9.974983e-01       3.535534e-03       9.988927e-01 
       1.002502e+00       3.535534e-03       1.003889e+00 
       1.002502e+00      -3.535534e-03       1.003889e+00 
       1.997498e+00      -3.535534e-03      -2.498262e-03 
       1.997498e+00       3.535534e-03      -2.498262e-03 
       2.002502e+00       3.535534e-03       2.498262e-03 
       2.002502e+00      -3.535534e-03       2.498262e-03 
       9.964620e-01       0.000000e+00       9.978579e-01 
       1.000000e+00       5.000000e-03       1.001391e+00 
       1.003538e+00       0.000000e+00       1.004924e+00 
       1.000000e+00      -5.000000e-03       1.001391e+00 
       1.996462e+00       0.000000e+00      -3.533076e-03 
       2.000000e+00       5.000000e-03       0.000000e+00 
       2.003538e+00       0.000000e+00       3.533076e-03 
       2.000000e+00      -5.000000e-03       0.000000e+00 
       1.497498e+00      -3.535534e-03       4.981972e-01 
       1.497498e+00       3.535534e-03       4.981972e-01 
       1.502502e+00       3.535534e-03       5.031937e-01 
       1.502502e+00      -3.535534e-03       5.031937e-01 

CELLS 2 42
20 0 1 2 3 4 5 6 7 8 9 10 11 12 13 14 15 16 17 18 19 
20 20 21 22 23 24 25 26 27 28 29 30 31 32 33 34 35 36 37 38 39 

CELL_TYPES 2
 25
 25

POINT_DATA        40 
VECTORS Displacements float
       1.73690499e-06      -8.67361738e-19       1.73811256e-06 
       1.73690499e-06       8.67361738e-19       1.73811256e-06 
      -1.73690499e-06       8.67361738e-19      -1.73811256e-06 
      -1.73690499e-06      -8.67361738e-19      -1.73811256e-06 
       1.73690499e-06      -8.67361738e-19       1.39271220e-03 
       1.73690499e-06       8.67361738e-19       1.39271220e-03 
      -1.73690499e-06       8.67361738e-19       1.38923598e-03 
      -1.73690499e-06      -8.67361738e-19       1.38923598e-03 
       2.45635459e-06       0.00000000e+00       2.45806236e-06 
       0.00000000e+00       8.67361738e-19       0.00000000e+00 
      -2.45635459e-06       0.00000000e+00      -2.45806236e-06 
       0.00000000e+00      -8.67361738e-19       0.00000000e+00 
       2.45635459e-06       0.00000000e+00       1.39343215e-03 
       0.00000000e+00       8.67361738e-19       1.39097409e-03 
      -2.45635459e-06       0.00000000e+00       1.38851603e-03 
       0.00000000e+00      -8.67361738e-19       1.39097409e-03 
       1.73690499e-06      -8.67361738e-19       6.97225157e-04 
       1.73690499e-06       8.67361738e-19       6.97225157e-04 
      -1.73690499e-06       8.67361738e-19       6.93748932e-04 
      -1.73690499e-06      -8.67361738e-19       6.93748932e-04 
      -1.73690499e-06      -8.67361738e-19       1.39271220e-03 
      -1.73690499e-06       8.67361738e-19       1.39271220e-03 
       1.73690499e-06       8.67361738e-19       1.38923598e-03 
       1.73690499e-06      -8.67361738e-19       1.38923598e-03 
      -1.73690499e-06      -8.67361738e-19       1.73811256e-06 
      -1.73690499e-06       8.67361738e-19       1.73811256e-06 
       1.73690499e-06       8.67361738e-19      -1.73811256e-06 
       1.73690499e-06      -8.67361738e-19      -1.73811256e-06 
      -2.45635459e-06       0.00000000e+00       1.39343215e-03 
       0.00000000e+00       8.67361738e-19       1.39097409e-03 
       2.45635459e-06       0.00000000e+00       1.38851603e-03 
       0.00000000e+00      -8.67361738e-19       1.39097409e-03 
      -2.45635459e-06       0.00000000e+00       2.45806236e-06 
       0.00000000e+00       8.67361738e-19       0.00000000e+00 
       2.45635459e-06       0.00000000e+00      -2.45806236e-06 
       0.00000000e+00      -8.67361738e-19       0.00000000e+00 
      -1.73690499e-06      -8.67361738e-19       6.97225157e-04 
      -1.73690499e-06       8.67361738e-19       6.97225157e-04 
       1.73690499e-06       8.67361738e-19       6.93748932e-04 
       1.73690499e-06      -8.67361738e-19       6.93748932e-04 

