# vtk DataFile Version 2.0
./output/static_plastic_von_mises_truss/static_plastic_von_mises_truss_0073.vtk
ASCII
DATASET UNSTRUCTURED_GRID

POINTS 40 float
       2.504622e-03      -3.535534e-03      -2.495369e-03 
       2.504622e-03       3.535534e-03      -2.495369e-03 
      -2.504622e-03       3.535534e-03       2.495369e-03 
      -2.504622e-03      -3.535534e-03       2.495369e-03 
       1.002505e+00      -3.535534e-03       1.001213e+00 
       1.002505e+00       3.535534e-03       1.001213e+00 
       9.974954e-01       3.535534e-03       1.006203e+00 
       9.974954e-01      -3.535534e-03       1.006203e+00 
       3.542071e-03       0.000000e+00      -3.528985e-03 
       0.000000e+00       5.000000e-03       0.000000e+00 
      -3.542071e-03       0.000000e+00       3.528985e-03 
       0.000000e+00      -5.000000e-03       0.000000e+00 
       1.003542e+00       0.000000e+00       1.000179e+00 
       1.000000e+00       5.000000e-03       1.003708e+00 
       9.964579e-01       0.000000e+00       1.007237e+00 
       1.000000e+00      -5.000000e-03       1.003708e+00 
       5.025046e-01      -3.535534e-03       4.993587e-01 
       5.025046e-01       3.535534e-03       4.993587e-01 
       4.974954e-01       3.535534e-03       5.043494e-01 
       4.974954e-01      -3.535534e-03       5.043494e-01 
       9.974954e-01      -3.535534e-03       1.001213e+00 
       9.974954e-01       3.535534e-03       1.001213e+00 
       1.002505e+00       3.535534e-03       1.006203e+00 
       1.002505e+00      -3.535534e-03       1.006203e+00 
       1.997495e+00      -3.535534e-03      -2.495369e-03 
       1.997495e+00       3.535534e-03      -2.495369e-03 
       2.002505e+00       3.535534e-03       2.495369e-03 
       2.002505e+00      -3.535534e-03       2.495369e-03 
       9.964579e-01       0.000000e+00       1.000179e+00 
       1.000000e+00       5.000000e-03       1.003708e+00 
       1.003542e+00       0.000000e+00       1.007237e+00 
       1.000000e+00      -5.000000e-03       1.003708e+00 
       1.996458e+00       0.000000e+00      -3.528985e-03 
       2.000000e+00       5.000000e-03       0.000000e+00 
       2.003542e+00       0.000000e+00       3.528985e-03 
       2.000000e+00      -5.000000e-03       0.000000e+00 
       1.497495e+00      -3.535534e-03       4.993587e-01 
       1.497495e+00       3.535534e-03       4.993587e-01 
       1.502505e+00       3.535534e-03       5.043494e-01 
       1.502505e+00      -3.535534e-03       5.043494e-01 

CELLS 2 42
20 0 1 2 3 4 5 6 7 8 9 10 11 12 13 14 15 16 17 18 19 
20 20 21 22 23 24 25 26 27 28 29 30 31 32 33 34 35 36 37 38 39 

CELL_TYPES 2
 25
 25

POINT_DATA        40 
VECTORS Displacements float
       4.62218569e-06       0.00000000e+00       4.63074738e-06 
       4.62218569e-06       0.00000000e+00       4.63074738e-06 
      -4.62218569e-06       0.00000000e+00      -4.63074738e-06 
      -4.62218569e-06       0.00000000e+00      -4.63074738e-06 
       4.62218569e-06       0.00000000e+00       3.71267238e-03 
       4.62218569e-06       0.00000000e+00       3.71267238e-03 
      -4.62218569e-06       0.00000000e+00       3.70341088e-03 
      -4.62218569e-06       0.00000000e+00       3.70341088e-03 
       6.53675769e-06       0.00000000e+00       6.54886574e-06 
       0.00000000e+00       0.00000000e+00       0.00000000e+00 
      -6.53675769e-06       0.00000000e+00      -6.54886574e-06 
       0.00000000e+00       0.00000000e+00       0.00000000e+00 
       6.53675769e-06       0.00000000e+00       3.71459049e-03 
       0.00000000e+00       0.00000000e+00       3.70804163e-03 
      -6.53675769e-06       0.00000000e+00       3.70149276e-03 
       0.00000000e+00       0.00000000e+00       3.70804163e-03 
       4.62218569e-06       0.00000000e+00       1.85865156e-03 
       4.62218569e-06       0.00000000e+00       1.85865156e-03 
      -4.62218569e-06       0.00000000e+00       1.84939007e-03 
      -4.62218569e-06       0.00000000e+00       1.84939007e-03 
      -4.62218569e-06       0.00000000e+00       3.71267238e-03 
      -4.62218569e-06       0.00000000e+00       3.71267238e-03 
       4.62218569e-06       0.00000000e+00       3.70341088e-03 
       4.62218569e-06       0.00000000e+00       3.70341088e-03 
      -4.62218569e-06       0.00000000e+00       4.63074738e-06 
      -4.62218569e-06       0.00000000e+00       4.63074738e-06 
       4.62218569e-06       0.00000000e+00      -4.63074738e-06 
       4.62218569e-06       0.00000000e+00      -4.63074738e-06 
      -6.53675769e-06       0.00000000e+00       3.71459049e-03 
       0.00000000e+00       0.00000000e+00       3.70804163e-03 
       6.53675769e-06       0.00000000e+00       3.70149276e-03 
       0.00000000e+00       0.00000000e+00       3.70804163e-03 
      -6.53675769e-06       0.00000000e+00       6.54886574e-06 
       0.00000000e+00       0.00000000e+00       0.00000000e+00 
       6.53675769e-06       0.00000000e+00      -6.54886574e-06 
       0.00000000e+00       0.00000000e+00       0.00000000e+00 
      -4.62218569e-06       0.00000000e+00       1.85865156e-03 
      -4.62218569e-06       0.00000000e+00       1.85865156e-03 
       4.62218569e-06       0.00000000e+00       1.84939007e-03 
       4.62218569e-06       0.00000000e+00       1.84939007e-03 

