# vtk DataFile Version 2.0
./output/static_plastic_von_mises_truss/static_plastic_von_mises_truss_0159.vtk
ASCII
DATASET UNSTRUCTURED_GRID

POINTS 40 float
       2.496034e-03      -3.535534e-03      -2.503960e-03 
       2.496034e-03       3.535534e-03      -2.503960e-03 
      -2.496034e-03       3.535534e-03       2.503960e-03 
      -2.496034e-03      -3.535534e-03       2.503960e-03 
       1.002496e+00      -3.535534e-03       9.943308e-01 
       1.002496e+00       3.535534e-03       9.943308e-01 
       9.975040e-01       3.535534e-03       9.993387e-01 
       9.975040e-01      -3.535534e-03       9.993387e-01 
       3.529925e-03       0.000000e+00      -3.541134e-03 
       0.000000e+00       5.000000e-03       0.000000e+00 
      -3.529925e-03       0.000000e+00       3.541134e-03 
       0.000000e+00      -5.000000e-03       0.000000e+00 
       1.003530e+00       0.000000e+00       9.932936e-01 
       1.000000e+00       5.000000e-03       9.968348e-01 
       9.964701e-01       0.000000e+00       1.000376e+00 
       1.000000e+00      -5.000000e-03       9.968348e-01 
       5.024960e-01      -3.535534e-03       4.959134e-01 
       5.024960e-01       3.535534e-03       4.959134e-01 
       4.975040e-01       3.535534e-03       5.009213e-01 
       4.975040e-01      -3.535534e-03       5.009213e-01 
       9.975040e-01      -3.535534e-03       9.943308e-01 
       9.975040e-01       3.535534e-03       9.943308e-01 
       1.002496e+00       3.535534e-03       9.993387e-01 
       1.002496e+00      -3.535534e-03       9.993387e-01 
       1.997504e+00      -3.535534e-03      -2.503960e-03 
       1.997504e+00       3.535534e-03      -2.503960e-03 
       2.002496e+00       3.535534e-03       2.503960e-03 
       2.002496e+00      -3.535534e-03       2.503960e-03 
       9.964701e-01       0.000000e+00       9.932936e-01 
       1.000000e+00       5.000000e-03       9.968348e-01 
       1.003530e+00       0.000000e+00       1.000376e+00 
       1.000000e+00      -5.000000e-03       9.968348e-01 
       1.996470e+00       0.000000e+00      -3.541134e-03 
       2.000000e+00       5.000000e-03       0.000000e+00 
       2.003530e+00       0.000000e+00       3.541134e-03 
       2.000000e+00      -5.000000e-03       0.000000e+00 
       1.497504e+00      -3.535534e-03       4.959134e-01 
       1.497504e+00       3.535534e-03       4.959134e-01 
       1.502496e+00       3.535534e-03       5.009213e-01 
       1.502496e+00      -3.535534e-03       5.009213e-01 

CELLS 2 42
20 0 1 2 3 4 5 6 7 8 9 10 11 12 13 14 15 16 17 18 19 
20 20 21 22 23 24 25 26 27 28 29 30 31 32 33 34 35 36 37 38 39 

CELL_TYPES 2
 25
 25

POINT_DATA        40 
VECTORS Displacements float
      -3.96596922e-06       0.00000000e+00      -3.95968761e-06 
      -3.96596922e-06       0.00000000e+00      -3.95968761e-06 
       3.96596922e-06       0.00000000e+00       3.95968761e-06 
       3.96596922e-06       0.00000000e+00       3.95968761e-06 
      -3.96596922e-06       0.00000000e+00      -3.16920906e-03 
      -3.96596922e-06       0.00000000e+00      -3.16920906e-03 
       3.96596922e-06       0.00000000e+00      -3.16128968e-03 
       3.96596922e-06       0.00000000e+00      -3.16128968e-03 
      -5.60872745e-06       0.00000000e+00      -5.59984392e-06 
       0.00000000e+00       0.00000000e+00       0.00000000e+00 
       5.60872745e-06       0.00000000e+00       5.59984392e-06 
       0.00000000e+00       0.00000000e+00       0.00000000e+00 
      -5.60872745e-06       0.00000000e+00      -3.17084921e-03 
       0.00000000e+00       0.00000000e+00      -3.16524937e-03 
       5.60872745e-06       0.00000000e+00      -3.15964953e-03 
       0.00000000e+00       0.00000000e+00      -3.16524937e-03 
      -3.96596922e-06       0.00000000e+00      -1.58658437e-03 
      -3.96596922e-06       0.00000000e+00      -1.58658437e-03 
       3.96596922e-06       0.00000000e+00      -1.57866500e-03 
       3.96596922e-06       0.00000000e+00      -1.57866500e-03 
       3.96596922e-06       0.00000000e+00      -3.16920906e-03 
       3.96596922e-06       0.00000000e+00      -3.16920906e-03 
      -3.96596922e-06       0.00000000e+00      -3.16128968e-03 
      -3.96596922e-06       0.00000000e+00      -3.16128968e-03 
       3.96596922e-06       0.00000000e+00      -3.95968761e-06 
       3.96596922e-06       0.00000000e+00      -3.95968761e-06 
      -3.96596922e-06       0.00000000e+00       3.95968761e-06 
      -3.96596922e-06       0.00000000e+00       3.95968761e-06 
       5.60872745e-06       0.00000000e+00      -3.17084921e-03 
       0.00000000e+00       0.00000000e+00      -3.16524937e-03 
      -5.60872745e-06       0.00000000e+00      -3.15964953e-03 
       0.00000000e+00       0.00000000e+00      -3.16524937e-03 
       5.60872745e-06       0.00000000e+00      -5.59984392e-06 
       0.00000000e+00       0.00000000e+00       0.00000000e+00 
      -5.60872745e-06       0.00000000e+00       5.59984392e-06 
       0.00000000e+00       0.00000000e+00       0.00000000e+00 
       3.96596922e-06       0.00000000e+00      -1.58658437e-03 
       3.96596922e-06       0.00000000e+00      -1.58658437e-03 
      -3.96596922e-06       0.00000000e+00      -1.57866500e-03 
      -3.96596922e-06       0.00000000e+00      -1.57866500e-03 

