# vtk DataFile Version 2.0
./output/static_plastic_von_mises_truss/static_plastic_von_mises_truss_0153.vtk
ASCII
DATASET UNSTRUCTURED_GRID

POINTS 40 float
       2.495503e-03      -3.535534e-03      -2.504489e-03 
       2.495503e-03       3.535534e-03      -2.504489e-03 
      -2.495503e-03       3.535534e-03       2.504489e-03 
      -2.495503e-03      -3.535534e-03       2.504489e-03 
       1.002496e+00      -3.535534e-03       9.939074e-01 
       1.002496e+00       3.535534e-03       9.939074e-01 
       9.975045e-01       3.535534e-03       9.989164e-01 
       9.975045e-01      -3.535534e-03       9.989164e-01 
       3.529174e-03       0.000000e+00      -3.541882e-03 
       0.000000e+00       5.000000e-03       0.000000e+00 
      -3.529174e-03       0.000000e+00       3.541882e-03 
       0.000000e+00      -5.000000e-03       0.000000e+00 
       1.003529e+00       0.000000e+00       9.928700e-01 
       1.000000e+00       5.000000e-03       9.964119e-01 
       9.964708e-01       0.000000e+00       9.999538e-01 
       1.000000e+00      -5.000000e-03       9.964119e-01 
       5.024955e-01      -3.535534e-03       4.957015e-01 
       5.024955e-01       3.535534e-03       4.957015e-01 
       4.975045e-01       3.535534e-03       5.007104e-01 
       4.975045e-01      -3.535534e-03       5.007104e-01 
       9.975045e-01      -3.535534e-03       9.939074e-01 
       9.975045e-01       3.535534e-03       9.939074e-01 
       1.002496e+00       3.535534e-03       9.989164e-01 
       1.002496e+00      -3.535534e-03       9.989164e-01 
       1.997504e+00      -3.535534e-03      -2.504489e-03 
       1.997504e+00       3.535534e-03      -2.504489e-03 
       2.002496e+00       3.535534e-03       2.504489e-03 
       2.002496e+00      -3.535534e-03       2.504489e-03 
       9.964708e-01       0.000000e+00       9.928700e-01 
       1.000000e+00       5.000000e-03       9.964119e-01 
       1.003529e+00       0.000000e+00       9.999538e-01 
       1.000000e+00      -5.000000e-03       9.964119e-01 
       1.996471e+00       0.000000e+00      -3.541882e-03 
       2.000000e+00       5.000000e-03      -1.110223e-16 
       2.003529e+00       0.000000e+00       3.541882e-03 
       2.000000e+00      -5.000000e-03      -1.110223e-16 
       1.497504e+00      -3.535534e-03       4.957015e-01 
       1.497504e+00       3.535534e-03       4.957015e-01 
       1.502496e+00       3.535534e-03       5.007104e-01 
       1.502496e+00      -3.535534e-03       5.007104e-01 

CELLS 2 42
20 0 1 2 3 4 5 6 7 8 9 10 11 12 13 14 15 16 17 18 19 
20 20 21 22 23 24 25 26 27 28 29 30 31 32 33 34 35 36 37 38 39 

CELL_TYPES 2
 25
 25

POINT_DATA        40 
VECTORS Displacements float
      -4.49719710e-06       0.00000000e+00      -4.48912170e-06 
      -4.49719710e-06       0.00000000e+00      -4.48912170e-06 
       4.49719710e-06       0.00000000e+00       4.48912170e-06 
       4.49719710e-06       0.00000000e+00       4.48912170e-06 
      -4.49719710e-06       0.00000000e+00      -3.59257371e-03 
      -4.49719710e-06       0.00000000e+00      -3.59257371e-03 
       4.49719710e-06       0.00000000e+00      -3.58359546e-03 
       4.49719710e-06       0.00000000e+00      -3.58359546e-03 
      -6.35999714e-06       0.00000000e+00      -6.34857680e-06 
       0.00000000e+00       0.00000000e+00       0.00000000e+00 
       6.35999714e-06       0.00000000e+00       6.34857680e-06 
       0.00000000e+00       0.00000000e+00       0.00000000e+00 
      -6.35999714e-06       0.00000000e+00      -3.59443316e-03 
       0.00000000e+00       0.00000000e+00      -3.58808458e-03 
       6.35999714e-06       0.00000000e+00      -3.58173601e-03 
       0.00000000e+00       0.00000000e+00      -3.58808458e-03 
      -4.49719710e-06       0.00000000e+00      -1.79853141e-03 
      -4.49719710e-06       0.00000000e+00      -1.79853141e-03 
       4.49719710e-06       0.00000000e+00      -1.78955317e-03 
       4.49719710e-06       0.00000000e+00      -1.78955317e-03 
       4.49719710e-06       0.00000000e+00      -3.59257371e-03 
       4.49719710e-06       0.00000000e+00      -3.59257371e-03 
      -4.49719710e-06       0.00000000e+00      -3.58359546e-03 
      -4.49719710e-06       0.00000000e+00      -3.58359546e-03 
       4.49719710e-06       0.00000000e+00      -4.48912170e-06 
       4.49719710e-06       0.00000000e+00      -4.48912170e-06 
      -4.49719710e-06       0.00000000e+00       4.48912170e-06 
      -4.49719710e-06       0.00000000e+00       4.48912170e-06 
       6.35999714e-06       0.00000000e+00      -3.59443316e-03 
       0.00000000e+00       0.00000000e+00      -3.58808458e-03 
      -6.35999714e-06       0.00000000e+00      -3.58173601e-03 
       0.00000000e+00       0.00000000e+00      -3.58808458e-03 
       6.35999714e-06       0.00000000e+00      -6.34857680e-06 
       0.00000000e+00       0.00000000e+00      -1.11022302e-16 
      -6.35999714e-06       0.00000000e+00       6.34857680e-06 
       0.00000000e+00       0.00000000e+00      -1.11022302e-16 
       4.49719710e-06       0.00000000e+00      -1.79853141e-03 
       4.49719710e-06       0.00000000e+00      -1.79853141e-03 
      -4.49719710e-06       0.00000000e+00      -1.78955317e-03 
      -4.49719710e-06       0.00000000e+00      -1.78955317e-03 

