# vtk DataFile Version 2.0
./output/static_plastic_von_mises_truss/static_plastic_von_mises_truss_0038.vtk
ASCII
DATASET UNSTRUCTURED_GRID

POINTS 40 float
       2.501626e-03      -3.535534e-03      -2.498373e-03 
       2.501626e-03       3.535534e-03      -2.498373e-03 
      -2.501626e-03       3.535534e-03       2.498373e-03 
      -2.501626e-03      -3.535534e-03       2.498373e-03 
       1.002502e+00      -3.535534e-03       9.988037e-01 
       1.002502e+00       3.535534e-03       9.988037e-01 
       9.974984e-01       3.535534e-03       1.003800e+00 
       9.974984e-01      -3.535534e-03       1.003800e+00 
       3.537833e-03       0.000000e+00      -3.533233e-03 
       0.000000e+00       5.000000e-03       0.000000e+00 
      -3.537833e-03       0.000000e+00       3.533233e-03 
       0.000000e+00      -5.000000e-03       0.000000e+00 
       1.003538e+00       0.000000e+00       9.977688e-01 
       1.000000e+00       5.000000e-03       1.001302e+00 
       9.964622e-01       0.000000e+00       1.004835e+00 
       1.000000e+00      -5.000000e-03       1.001302e+00 
       5.025016e-01      -3.535534e-03       4.981526e-01 
       5.025016e-01       3.535534e-03       4.981526e-01 
       4.974984e-01       3.535534e-03       5.031494e-01 
       4.974984e-01      -3.535534e-03       5.031494e-01 
       9.974984e-01      -3.535534e-03       9.988037e-01 
       9.974984e-01       3.535534e-03       9.988037e-01 
       1.002502e+00       3.535534e-03       1.003800e+00 
       1.002502e+00      -3.535534e-03       1.003800e+00 
       1.997498e+00      -3.535534e-03      -2.498373e-03 
       1.997498e+00       3.535534e-03      -2.498373e-03 
       2.002502e+00       3.535534e-03       2.498373e-03 
       2.002502e+00      -3.535534e-03       2.498373e-03 
       9.964622e-01       0.000000e+00       9.977688e-01 
       1.000000e+00       5.000000e-03       1.001302e+00 
       1.003538e+00       0.000000e+00       1.004835e+00 
       1.000000e+00      -5.000000e-03       1.001302e+00 
       1.996462e+00       0.000000e+00      -3.533233e-03 
       2.000000e+00       5.000000e-03       0.000000e+00 
       2.003538e+00       0.000000e+00       3.533233e-03 
       2.000000e+00      -5.000000e-03       0.000000e+00 
       1.497498e+00      -3.535534e-03       4.981526e-01 
       1.497498e+00       3.535534e-03       4.981526e-01 
       1.502502e+00       3.535534e-03       5.031494e-01 
       1.502502e+00      -3.535534e-03       5.031494e-01 

CELLS 2 42
20 0 1 2 3 4 5 6 7 8 9 10 11 12 13 14 15 16 17 18 19 
20 20 21 22 23 24 25 26 27 28 29 30 31 32 33 34 35 36 37 38 39 

CELL_TYPES 2
 25
 25

POINT_DATA        40 
VECTORS Displacements float
       1.62596715e-06       8.67361738e-19       1.62702535e-06 
       1.62596715e-06      -8.67361738e-19       1.62702535e-06 
      -1.62596715e-06      -8.67361738e-19      -1.62702535e-06 
      -1.62596715e-06       8.67361738e-19      -1.62702535e-06 
       1.62596715e-06       8.67361738e-19       1.30367141e-03 
       1.62596715e-06      -8.67361738e-19       1.30367141e-03 
      -1.62596715e-06      -8.67361738e-19       1.30041736e-03 
      -1.62596715e-06       8.67361738e-19       1.30041736e-03 
       2.29946480e-06       0.00000000e+00       2.30096132e-06 
       0.00000000e+00      -8.67361738e-19       0.00000000e+00 
      -2.29946480e-06       0.00000000e+00      -2.30096132e-06 
       0.00000000e+00       8.67361738e-19       0.00000000e+00 
       2.29946480e-06       0.00000000e+00       1.30434535e-03 
       0.00000000e+00      -8.67361738e-19       1.30204439e-03 
      -2.29946480e-06       0.00000000e+00       1.29974342e-03 
       0.00000000e+00       8.67361738e-19       1.30204439e-03 
       1.62596715e-06       8.67361738e-19       6.52649218e-04 
       1.62596715e-06      -8.67361738e-19       6.52649218e-04 
      -1.62596715e-06      -8.67361738e-19       6.49395168e-04 
      -1.62596715e-06       8.67361738e-19       6.49395168e-04 
      -1.62596715e-06       8.67361738e-19       1.30367141e-03 
      -1.62596715e-06      -8.67361738e-19       1.30367141e-03 
       1.62596715e-06      -8.67361738e-19       1.30041736e-03 
       1.62596715e-06       8.67361738e-19       1.30041736e-03 
      -1.62596715e-06       8.67361738e-19       1.62702535e-06 
      -1.62596715e-06      -8.67361738e-19       1.62702535e-06 
       1.62596716e-06      -8.67361738e-19      -1.62702535e-06 
       1.62596716e-06       8.67361738e-19      -1.62702535e-06 
      -2.29946480e-06       0.00000000e+00       1.30434535e-03 
       0.00000000e+00      -8.67361738e-19       1.30204439e-03 
       2.29946480e-06       0.00000000e+00       1.29974342e-03 
       0.00000000e+00       8.67361738e-19       1.30204439e-03 
      -2.29946480e-06       0.00000000e+00       2.30096132e-06 
       0.00000000e+00      -8.67361738e-19       0.00000000e+00 
       2.29946480e-06       0.00000000e+00      -2.30096132e-06 
       0.00000000e+00       8.67361738e-19       0.00000000e+00 
      -1.62596715e-06       8.67361738e-19       6.52649218e-04 
      -1.62596715e-06      -8.67361738e-19       6.52649218e-04 
       1.62596715e-06      -8.67361738e-19       6.49395168e-04 
       1.62596715e-06       8.67361738e-19       6.49395168e-04 

