# vtk DataFile Version 2.0
./output/static_plastic_von_mises_truss/static_plastic_von_mises_truss_0275.vtk
ASCII
DATASET UNSTRUCTURED_GRID

POINTS 40 float
       2.500762e-03      -3.535534e-03      -2.499238e-03 
       2.500762e-03       3.535534e-03      -2.499238e-03 
      -2.500762e-03       3.535534e-03       2.499238e-03 
      -2.500762e-03      -3.535534e-03       2.499238e-03 
       1.002501e+00      -3.535534e-03       9.981103e-01 
       1.002501e+00       3.535534e-03       9.981103e-01 
       9.974992e-01       3.535534e-03       1.003109e+00 
       9.974992e-01      -3.535534e-03       1.003109e+00 
       3.536611e-03       0.000000e+00      -3.534456e-03 
       0.000000e+00       5.000000e-03       0.000000e+00 
      -3.536611e-03       0.000000e+00       3.534456e-03 
       0.000000e+00      -5.000000e-03       0.000000e+00 
       1.003537e+00       0.000000e+00       9.970751e-01 
       1.000000e+00       5.000000e-03       1.000610e+00 
       9.964634e-01       0.000000e+00       1.004144e+00 
       1.000000e+00      -5.000000e-03       1.000610e+00 
       5.025008e-01      -3.535534e-03       4.978056e-01 
       5.025008e-01       3.535534e-03       4.978056e-01 
       4.974992e-01       3.535534e-03       5.028040e-01 
       4.974992e-01      -3.535534e-03       5.028040e-01 
       9.974992e-01      -3.535534e-03       9.981103e-01 
       9.974992e-01       3.535534e-03       9.981103e-01 
       1.002501e+00       3.535534e-03       1.003109e+00 
       1.002501e+00      -3.535534e-03       1.003109e+00 
       1.997499e+00      -3.535534e-03      -2.499238e-03 
       1.997499e+00       3.535534e-03      -2.499238e-03 
       2.002501e+00       3.535534e-03       2.499238e-03 
       2.002501e+00      -3.535534e-03       2.499238e-03 
       9.964634e-01       0.000000e+00       9.970751e-01 
       1.000000e+00       5.000000e-03       1.000610e+00 
       1.003537e+00       0.000000e+00       1.004144e+00 
       1.000000e+00      -5.000000e-03       1.000610e+00 
       1.996463e+00       0.000000e+00      -3.534456e-03 
       2.000000e+00       5.000000e-03       0.000000e+00 
       2.003537e+00       0.000000e+00       3.534456e-03 
       2.000000e+00      -5.000000e-03       0.000000e+00 
       1.497499e+00      -3.535534e-03       4.978056e-01 
       1.497499e+00       3.535534e-03       4.978056e-01 
       1.502501e+00       3.535534e-03       5.028040e-01 
       1.502501e+00      -3.535534e-03       5.028040e-01 

CELLS 2 42
20 0 1 2 3 4 5 6 7 8 9 10 11 12 13 14 15 16 17 18 19 
20 20 21 22 23 24 25 26 27 28 29 30 31 32 33 34 35 36 37 38 39 

CELL_TYPES 2
 25
 25

POINT_DATA        40 
VECTORS Displacements float
       7.61623577e-07       0.00000000e+00       7.61855675e-07 
       7.61623577e-07       0.00000000e+00       7.61855675e-07 
      -7.61623577e-07       0.00000000e+00      -7.61855675e-07 
      -7.61623577e-07       0.00000000e+00      -7.61855675e-07 
       7.61623577e-07       0.00000000e+00       6.10339320e-04 
       7.61623577e-07       0.00000000e+00       6.10339320e-04 
      -7.61623577e-07       0.00000000e+00       6.08815609e-04 
      -7.61623577e-07       0.00000000e+00       6.08815609e-04 
       1.07709839e-06       0.00000000e+00       1.07742663e-06 
       0.00000000e+00       0.00000000e+00       0.00000000e+00 
      -1.07709839e-06       0.00000000e+00      -1.07742663e-06 
       0.00000000e+00       0.00000000e+00       0.00000000e+00 
       1.07709839e-06       0.00000000e+00       6.10654891e-04 
       0.00000000e+00       0.00000000e+00       6.09577465e-04 
      -1.07709839e-06       0.00000000e+00       6.08500038e-04 
       0.00000000e+00       0.00000000e+00       6.09577465e-04 
       7.61623577e-07       0.00000000e+00       3.05550588e-04 
       7.61623577e-07       0.00000000e+00       3.05550588e-04 
      -7.61623577e-07       0.00000000e+00       3.04026877e-04 
      -7.61623577e-07       0.00000000e+00       3.04026877e-04 
      -7.61623577e-07       0.00000000e+00       6.10339320e-04 
      -7.61623577e-07       0.00000000e+00       6.10339320e-04 
       7.61623577e-07       0.00000000e+00       6.08815609e-04 
       7.61623577e-07       0.00000000e+00       6.08815609e-04 
      -7.61623577e-07       0.00000000e+00       7.61855675e-07 
      -7.61623577e-07       0.00000000e+00       7.61855675e-07 
       7.61623577e-07       0.00000000e+00      -7.61855675e-07 
       7.61623577e-07       0.00000000e+00      -7.61855675e-07 
      -1.07709839e-06       0.00000000e+00       6.10654891e-04 
       0.00000000e+00       0.00000000e+00       6.09577465e-04 
       1.07709839e-06       0.00000000e+00       6.08500038e-04 
       0.00000000e+00       0.00000000e+00       6.09577465e-04 
      -1.07709839e-06       0.00000000e+00       1.07742663e-06 
       0.00000000e+00       0.00000000e+00       0.00000000e+00 
       1.07709839e-06       0.00000000e+00      -1.07742663e-06 
       0.00000000e+00       0.00000000e+00       0.00000000e+00 
      -7.61623577e-07       0.00000000e+00       3.05550588e-04 
      -7.61623577e-07       0.00000000e+00       3.05550588e-04 
       7.61623577e-07       0.00000000e+00       3.04026877e-04 
       7.61623577e-07       0.00000000e+00       3.04026877e-04 

