# vtk DataFile Version 2.0
./output/static_plastic_von_mises_truss/static_plastic_von_mises_truss_0074.vtk
ASCII
DATASET UNSTRUCTURED_GRID

POINTS 40 float
       2.504537e-03      -3.535534e-03      -2.495455e-03 
       2.504537e-03       3.535534e-03      -2.495455e-03 
      -2.504537e-03       3.535534e-03       2.495455e-03 
      -2.504537e-03      -3.535534e-03       2.495455e-03 
       1.002505e+00      -3.535534e-03       1.001144e+00 
       1.002505e+00       3.535534e-03       1.001144e+00 
       9.974955e-01       3.535534e-03       1.006135e+00 
       9.974955e-01      -3.535534e-03       1.006135e+00 
       3.541950e-03       0.000000e+00      -3.529106e-03 
       0.000000e+00       5.000000e-03       0.000000e+00 
      -3.541950e-03       0.000000e+00       3.529106e-03 
       0.000000e+00      -5.000000e-03       0.000000e+00 
       1.003542e+00       0.000000e+00       1.000110e+00 
       1.000000e+00       5.000000e-03       1.003639e+00 
       9.964581e-01       0.000000e+00       1.007169e+00 
       1.000000e+00      -5.000000e-03       1.003639e+00 
       5.025045e-01      -3.535534e-03       4.993242e-01 
       5.025045e-01       3.535534e-03       4.993242e-01 
       4.974955e-01       3.535534e-03       5.043152e-01 
       4.974955e-01      -3.535534e-03       5.043152e-01 
       9.974955e-01      -3.535534e-03       1.001144e+00 
       9.974955e-01       3.535534e-03       1.001144e+00 
       1.002505e+00       3.535534e-03       1.006135e+00 
       1.002505e+00      -3.535534e-03       1.006135e+00 
       1.997495e+00      -3.535534e-03      -2.495455e-03 
       1.997495e+00       3.535534e-03      -2.495455e-03 
       2.002505e+00       3.535534e-03       2.495455e-03 
       2.002505e+00      -3.535534e-03       2.495455e-03 
       9.964581e-01       0.000000e+00       1.000110e+00 
       1.000000e+00       5.000000e-03       1.003639e+00 
       1.003542e+00       0.000000e+00       1.007169e+00 
       1.000000e+00      -5.000000e-03       1.003639e+00 
       1.996458e+00       0.000000e+00      -3.529106e-03 
       2.000000e+00       5.000000e-03       0.000000e+00 
       2.003542e+00       0.000000e+00       3.529106e-03 
       2.000000e+00      -5.000000e-03       0.000000e+00 
       1.497495e+00      -3.535534e-03       4.993242e-01 
       1.497495e+00       3.535534e-03       4.993242e-01 
       1.502505e+00       3.535534e-03       5.043152e-01 
       1.502505e+00      -3.535534e-03       5.043152e-01 

CELLS 2 42
20 0 1 2 3 4 5 6 7 8 9 10 11 12 13 14 15 16 17 18 19 
20 20 21 22 23 24 25 26 27 28 29 30 31 32 33 34 35 36 37 38 39 

CELL_TYPES 2
 25
 25

POINT_DATA        40 
VECTORS Displacements float
       4.53686000e-06       0.00000000e+00       4.54510823e-06 
       4.53686000e-06       0.00000000e+00       4.54510823e-06 
      -4.53686000e-06       0.00000000e+00      -4.54510823e-06 
      -4.53686000e-06       0.00000000e+00      -4.54510823e-06 
       4.53686000e-06       0.00000000e+00       3.64394899e-03 
       4.53686000e-06       0.00000000e+00       3.64394899e-03 
      -4.53686000e-06       0.00000000e+00       3.63485878e-03 
      -4.53686000e-06       0.00000000e+00       3.63485878e-03 
       6.41608895e-06       0.00000000e+00       6.42775369e-06 
       0.00000000e+00       0.00000000e+00       0.00000000e+00 
      -6.41608895e-06       0.00000000e+00      -6.42775369e-06 
       0.00000000e+00       0.00000000e+00       0.00000000e+00 
       6.41608895e-06       0.00000000e+00       3.64583164e-03 
       0.00000000e+00       0.00000000e+00       3.63940389e-03 
      -6.41608895e-06       0.00000000e+00       3.63297613e-03 
       0.00000000e+00       0.00000000e+00       3.63940389e-03 
       4.53686000e-06       0.00000000e+00       1.82424705e-03 
       4.53686000e-06       0.00000000e+00       1.82424705e-03 
      -4.53686000e-06       0.00000000e+00       1.81515683e-03 
      -4.53686000e-06       0.00000000e+00       1.81515683e-03 
      -4.53686000e-06       0.00000000e+00       3.64394899e-03 
      -4.53686000e-06       0.00000000e+00       3.64394899e-03 
       4.53686000e-06       0.00000000e+00       3.63485878e-03 
       4.53686000e-06       0.00000000e+00       3.63485878e-03 
      -4.53686000e-06       0.00000000e+00       4.54510822e-06 
      -4.53686000e-06       0.00000000e+00       4.54510822e-06 
       4.53686000e-06       0.00000000e+00      -4.54510822e-06 
       4.53686000e-06       0.00000000e+00      -4.54510822e-06 
      -6.41608895e-06       0.00000000e+00       3.64583164e-03 
       0.00000000e+00       0.00000000e+00       3.63940389e-03 
       6.41608895e-06       0.00000000e+00       3.63297613e-03 
       0.00000000e+00       0.00000000e+00       3.63940389e-03 
      -6.41608895e-06       0.00000000e+00       6.42775369e-06 
       0.00000000e+00       0.00000000e+00       0.00000000e+00 
       6.41608895e-06       0.00000000e+00      -6.42775369e-06 
       0.00000000e+00       0.00000000e+00       0.00000000e+00 
      -4.53686000e-06       0.00000000e+00       1.82424705e-03 
      -4.53686000e-06       0.00000000e+00       1.82424705e-03 
       4.53686000e-06       0.00000000e+00       1.81515683e-03 
       4.53686000e-06       0.00000000e+00       1.81515683e-03 

