# vtk DataFile Version 2.0
./output/static_plastic_von_mises_truss/static_plastic_von_mises_truss_0023.vtk
ASCII
DATASET UNSTRUCTURED_GRID

POINTS 40 float
       2.500985e-03      -3.535534e-03      -2.499015e-03 
       2.500985e-03       3.535534e-03      -2.499015e-03 
      -2.500985e-03       3.535534e-03       2.499015e-03 
      -2.500985e-03      -3.535534e-03       2.499015e-03 
       1.002501e+00      -3.535534e-03       9.982894e-01 
       1.002501e+00       3.535534e-03       9.982894e-01 
       9.974990e-01       3.535534e-03       1.003287e+00 
       9.974990e-01      -3.535534e-03       1.003287e+00 
       3.536927e-03       0.000000e+00      -3.534141e-03 
       0.000000e+00       5.000000e-03       0.000000e+00 
      -3.536927e-03       0.000000e+00       3.534141e-03 
       0.000000e+00      -5.000000e-03       0.000000e+00 
       1.003537e+00       0.000000e+00       9.972542e-01 
       1.000000e+00       5.000000e-03       1.000788e+00 
       9.964631e-01       0.000000e+00       1.004323e+00 
       1.000000e+00      -5.000000e-03       1.000788e+00 
       5.025010e-01      -3.535534e-03       4.978952e-01 
       5.025010e-01       3.535534e-03       4.978952e-01 
       4.974990e-01       3.535534e-03       5.028932e-01 
       4.974990e-01      -3.535534e-03       5.028932e-01 
       9.974990e-01      -3.535534e-03       9.982894e-01 
       9.974990e-01       3.535534e-03       9.982894e-01 
       1.002501e+00       3.535534e-03       1.003287e+00 
       1.002501e+00      -3.535534e-03       1.003287e+00 
       1.997499e+00      -3.535534e-03      -2.499015e-03 
       1.997499e+00       3.535534e-03      -2.499015e-03 
       2.002501e+00       3.535534e-03       2.499015e-03 
       2.002501e+00      -3.535534e-03       2.499015e-03 
       9.964631e-01       0.000000e+00       9.972542e-01 
       1.000000e+00       5.000000e-03       1.000788e+00 
       1.003537e+00       0.000000e+00       1.004323e+00 
       1.000000e+00      -5.000000e-03       1.000788e+00 
       1.996463e+00       0.000000e+00      -3.534141e-03 
       2.000000e+00       5.000000e-03       0.000000e+00 
       2.003537e+00       0.000000e+00       3.534141e-03 
       2.000000e+00      -5.000000e-03       0.000000e+00 
       1.497499e+00      -3.535534e-03       4.978952e-01 
       1.497499e+00       3.535534e-03       4.978952e-01 
       1.502501e+00       3.535534e-03       5.028932e-01 
       1.502501e+00      -3.535534e-03       5.028932e-01 

CELLS 2 42
20 0 1 2 3 4 5 6 7 8 9 10 11 12 13 14 15 16 17 18 19 
20 20 21 22 23 24 25 26 27 28 29 30 31 32 33 34 35 36 37 38 39 

CELL_TYPES 2
 25
 25

POINT_DATA        40 
VECTORS Displacements float
       9.84895786e-07      -8.67361738e-19       9.85283946e-07 
       9.84895786e-07       8.67361738e-19       9.85283946e-07 
      -9.84895786e-07       8.67361738e-19      -9.85283946e-07 
      -9.84895786e-07      -8.67361738e-19      -9.85283946e-07 
       9.84895786e-07      -8.67361738e-19       7.89367889e-04 
       9.84895786e-07       8.67361738e-19       7.89367889e-04 
      -9.84895786e-07       8.67361738e-19       7.87397321e-04 
      -9.84895786e-07      -8.67361738e-19       7.87397321e-04 
       1.39285298e-06       0.00000000e+00       1.39340192e-06 
       0.00000000e+00       8.67361738e-19       0.00000000e+00 
      -1.39285298e-06       0.00000000e+00      -1.39340192e-06 
       0.00000000e+00      -8.67361738e-19       0.00000000e+00 
       1.39285298e-06       0.00000000e+00       7.89776007e-04 
       0.00000000e+00       8.67361738e-19       7.88382605e-04 
      -1.39285298e-06       0.00000000e+00       7.86989203e-04 
       0.00000000e+00      -8.67361738e-19       7.88382605e-04 
       9.84895786e-07      -8.67361738e-19       3.95176587e-04 
       9.84895786e-07       8.67361738e-19       3.95176587e-04 
      -9.84895786e-07       8.67361738e-19       3.93206019e-04 
      -9.84895786e-07      -8.67361738e-19       3.93206019e-04 
      -9.84895786e-07      -8.67361738e-19       7.89367889e-04 
      -9.84895786e-07       8.67361738e-19       7.89367889e-04 
       9.84895786e-07       8.67361738e-19       7.87397321e-04 
       9.84895786e-07      -8.67361738e-19       7.87397321e-04 
      -9.84895786e-07      -8.67361738e-19       9.85283946e-07 
      -9.84895786e-07       8.67361738e-19       9.85283946e-07 
       9.84895786e-07       8.67361738e-19      -9.85283946e-07 
       9.84895786e-07      -8.67361738e-19      -9.85283946e-07 
      -1.39285298e-06       0.00000000e+00       7.89776007e-04 
       0.00000000e+00       8.67361738e-19       7.88382605e-04 
       1.39285298e-06       0.00000000e+00       7.86989203e-04 
       0.00000000e+00      -8.67361738e-19       7.88382605e-04 
      -1.39285298e-06       0.00000000e+00       1.39340192e-06 
       0.00000000e+00       8.67361738e-19       0.00000000e+00 
       1.39285298e-06       0.00000000e+00      -1.39340192e-06 
       0.00000000e+00      -8.67361738e-19       0.00000000e+00 
      -9.84895786e-07      -8.67361738e-19       3.95176587e-04 
      -9.84895786e-07       8.67361738e-19       3.95176587e-04 
       9.84895786e-07       8.67361738e-19       3.93206019e-04 
       9.84895786e-07      -8.67361738e-19       3.93206019e-04 

