# vtk DataFile Version 2.0
./output/static_plastic_von_mises_truss/static_plastic_von_mises_truss_0151.vtk
ASCII
DATASET UNSTRUCTURED_GRID

POINTS 40 float
       2.495326e-03      -3.535534e-03      -2.504666e-03 
       2.495326e-03       3.535534e-03      -2.504666e-03 
      -2.495326e-03       3.535534e-03       2.504666e-03 
      -2.495326e-03      -3.535534e-03       2.504666e-03 
       1.002495e+00      -3.535534e-03       9.937662e-01 
       1.002495e+00       3.535534e-03       9.937662e-01 
       9.975047e-01       3.535534e-03       9.987756e-01 
       9.975047e-01      -3.535534e-03       9.987756e-01 
       3.528923e-03       0.000000e+00      -3.542132e-03 
       0.000000e+00       5.000000e-03       0.000000e+00 
      -3.528923e-03       0.000000e+00       3.542132e-03 
       0.000000e+00      -5.000000e-03       0.000000e+00 
       1.003529e+00       0.000000e+00       9.927288e-01 
       1.000000e+00       5.000000e-03       9.962709e-01 
       9.964711e-01       0.000000e+00       9.998130e-01 
       1.000000e+00      -5.000000e-03       9.962709e-01 
       5.024953e-01      -3.535534e-03       4.956308e-01 
       5.024953e-01       3.535534e-03       4.956308e-01 
       4.975047e-01       3.535534e-03       5.006401e-01 
       4.975047e-01      -3.535534e-03       5.006401e-01 
       9.975047e-01      -3.535534e-03       9.937662e-01 
       9.975047e-01       3.535534e-03       9.937662e-01 
       1.002495e+00       3.535534e-03       9.987756e-01 
       1.002495e+00      -3.535534e-03       9.987756e-01 
       1.997505e+00      -3.535534e-03      -2.504666e-03 
       1.997505e+00       3.535534e-03      -2.504666e-03 
       2.002495e+00       3.535534e-03       2.504666e-03 
       2.002495e+00      -3.535534e-03       2.504666e-03 
       9.964711e-01       0.000000e+00       9.927288e-01 
       1.000000e+00       5.000000e-03       9.962709e-01 
       1.003529e+00       0.000000e+00       9.998130e-01 
       1.000000e+00      -5.000000e-03       9.962709e-01 
       1.996471e+00       0.000000e+00      -3.542132e-03 
       2.000000e+00       5.000000e-03       1.110223e-16 
       2.003529e+00       0.000000e+00       3.542132e-03 
       2.000000e+00      -5.000000e-03       1.110223e-16 
       1.497505e+00      -3.535534e-03       4.956308e-01 
       1.497505e+00       3.535534e-03       4.956308e-01 
       1.502495e+00       3.535534e-03       5.006401e-01 
       1.502495e+00      -3.535534e-03       5.006401e-01 

CELLS 2 42
20 0 1 2 3 4 5 6 7 8 9 10 11 12 13 14 15 16 17 18 19 
20 20 21 22 23 24 25 26 27 28 29 30 31 32 33 34 35 36 37 38 39 

CELL_TYPES 2
 25
 25

POINT_DATA        40 
VECTORS Displacements float
      -4.67442353e-06       0.00000000e+00      -4.66569973e-06 
      -4.67442353e-06       0.00000000e+00      -4.66569973e-06 
       4.67442353e-06       0.00000000e+00       4.66569973e-06 
       4.67442353e-06       0.00000000e+00       4.66569973e-06 
      -4.67442353e-06       0.00000000e+00      -3.73375548e-03 
      -4.67442353e-06       0.00000000e+00      -3.73375548e-03 
       4.67442353e-06       0.00000000e+00      -3.72442408e-03 
       4.67442353e-06       0.00000000e+00      -3.72442408e-03 
      -6.61063315e-06       0.00000000e+00      -6.59829583e-06 
       0.00000000e+00       0.00000000e+00       0.00000000e+00 
       6.61063315e-06       0.00000000e+00       6.59829583e-06 
       0.00000000e+00       0.00000000e+00       0.00000000e+00 
      -6.61063315e-06       0.00000000e+00      -3.73568807e-03 
       0.00000000e+00       0.00000000e+00      -3.72908978e-03 
       6.61063315e-06       0.00000000e+00      -3.72249148e-03 
       0.00000000e+00       0.00000000e+00      -3.72908978e-03 
      -4.67442353e-06       0.00000000e+00      -1.86921059e-03 
      -4.67442353e-06       0.00000000e+00      -1.86921059e-03 
       4.67442353e-06       0.00000000e+00      -1.85987919e-03 
       4.67442353e-06       0.00000000e+00      -1.85987919e-03 
       4.67442353e-06       0.00000000e+00      -3.73375548e-03 
       4.67442353e-06       0.00000000e+00      -3.73375548e-03 
      -4.67442353e-06       0.00000000e+00      -3.72442408e-03 
      -4.67442353e-06       0.00000000e+00      -3.72442408e-03 
       4.67442353e-06       0.00000000e+00      -4.66569973e-06 
       4.67442353e-06       0.00000000e+00      -4.66569973e-06 
      -4.67442353e-06       0.00000000e+00       4.66569973e-06 
      -4.67442353e-06       0.00000000e+00       4.66569973e-06 
       6.61063315e-06       0.00000000e+00      -3.73568807e-03 
       0.00000000e+00       0.00000000e+00      -3.72908978e-03 
      -6.61063315e-06       0.00000000e+00      -3.72249148e-03 
       0.00000000e+00       0.00000000e+00      -3.72908978e-03 
       6.61063315e-06       0.00000000e+00      -6.59829583e-06 
       0.00000000e+00       0.00000000e+00       1.11022302e-16 
      -6.61063315e-06       0.00000000e+00       6.59829583e-06 
       0.00000000e+00       0.00000000e+00       1.11022302e-16 
       4.67442353e-06       0.00000000e+00      -1.86921059e-03 
       4.67442353e-06       0.00000000e+00      -1.86921059e-03 
      -4.67442353e-06       0.00000000e+00      -1.85987919e-03 
      -4.67442353e-06       0.00000000e+00      -1.85987919e-03 

