# vtk DataFile Version 2.0
./output/static_plastic_von_mises_truss/static_plastic_von_mises_truss_0014.vtk
ASCII
DATASET UNSTRUCTURED_GRID

POINTS 40 float
       2.500600e-03      -3.535534e-03      -2.499400e-03 
       2.500600e-03       3.535534e-03      -2.499400e-03 
      -2.500600e-03       3.535534e-03       2.499400e-03 
      -2.500600e-03      -3.535534e-03       2.499400e-03 
       1.002501e+00      -3.535534e-03       9.979806e-01 
       1.002501e+00       3.535534e-03       9.979806e-01 
       9.974994e-01       3.535534e-03       1.002979e+00 
       9.974994e-01      -3.535534e-03       1.002979e+00 
       3.536382e-03       0.000000e+00      -3.534685e-03 
       0.000000e+00       5.000000e-03       0.000000e+00 
      -3.536382e-03       0.000000e+00       3.534685e-03 
       0.000000e+00      -5.000000e-03       0.000000e+00 
       1.003536e+00       0.000000e+00       9.969453e-01 
       1.000000e+00       5.000000e-03       1.000480e+00 
       9.964636e-01       0.000000e+00       1.004015e+00 
       1.000000e+00      -5.000000e-03       1.000480e+00 
       5.025006e-01      -3.535534e-03       4.977406e-01 
       5.025006e-01       3.535534e-03       4.977406e-01 
       4.974994e-01       3.535534e-03       5.027394e-01 
       4.974994e-01      -3.535534e-03       5.027394e-01 
       9.974994e-01      -3.535534e-03       9.979806e-01 
       9.974994e-01       3.535534e-03       9.979806e-01 
       1.002501e+00       3.535534e-03       1.002979e+00 
       1.002501e+00      -3.535534e-03       1.002979e+00 
       1.997499e+00      -3.535534e-03      -2.499400e-03 
       1.997499e+00       3.535534e-03      -2.499400e-03 
       2.002501e+00       3.535534e-03       2.499400e-03 
       2.002501e+00      -3.535534e-03       2.499400e-03 
       9.964636e-01       0.000000e+00       9.969453e-01 
       1.000000e+00       5.000000e-03       1.000480e+00 
       1.003536e+00       0.000000e+00       1.004015e+00 
       1.000000e+00      -5.000000e-03       1.000480e+00 
       1.996464e+00       0.000000e+00      -3.534685e-03 
       2.000000e+00       5.000000e-03       0.000000e+00 
       2.003536e+00       0.000000e+00       3.534685e-03 
       2.000000e+00      -5.000000e-03       0.000000e+00 
       1.497499e+00      -3.535534e-03       4.977406e-01 
       1.497499e+00       3.535534e-03       4.977406e-01 
       1.502501e+00       3.535534e-03       5.027394e-01 
       1.502501e+00      -3.535534e-03       5.027394e-01 

CELLS 2 42
20 0 1 2 3 4 5 6 7 8 9 10 11 12 13 14 15 16 17 18 19 
20 20 21 22 23 24 25 26 27 28 29 30 31 32 33 34 35 36 37 38 39 

CELL_TYPES 2
 25
 25

POINT_DATA        40 
VECTORS Displacements float
       5.99778988e-07       0.00000000e+00       5.99922917e-07 
       5.99778988e-07       0.00000000e+00       5.99922917e-07 
      -5.99778988e-07       0.00000000e+00      -5.99922917e-07 
      -5.99778988e-07       0.00000000e+00      -5.99922917e-07 
       5.99778988e-07       0.00000000e+00       4.80595869e-04 
       5.99778988e-07       0.00000000e+00       4.80595869e-04 
      -5.99778988e-07       0.00000000e+00       4.79396023e-04 
      -5.99778988e-07       0.00000000e+00       4.79396023e-04 
       8.48215580e-07       0.00000000e+00       8.48419125e-07 
       0.00000000e+00       0.00000000e+00       0.00000000e+00 
      -8.48215580e-07       0.00000000e+00      -8.48419125e-07 
       0.00000000e+00       0.00000000e+00       0.00000000e+00 
       8.48215580e-07       0.00000000e+00       4.80844365e-04 
       0.00000000e+00       0.00000000e+00       4.79995946e-04 
      -8.48215580e-07       0.00000000e+00       4.79147527e-04 
       0.00000000e+00       0.00000000e+00       4.79995946e-04 
       5.99778988e-07       0.00000000e+00       2.40597896e-04 
       5.99778988e-07       0.00000000e+00       2.40597896e-04 
      -5.99778988e-07       0.00000000e+00       2.39398050e-04 
      -5.99778988e-07       0.00000000e+00       2.39398050e-04 
      -5.99778988e-07       0.00000000e+00       4.80595869e-04 
      -5.99778988e-07       0.00000000e+00       4.80595869e-04 
       5.99778988e-07       0.00000000e+00       4.79396023e-04 
       5.99778988e-07       0.00000000e+00       4.79396023e-04 
      -5.99778988e-07       0.00000000e+00       5.99922917e-07 
      -5.99778988e-07       0.00000000e+00       5.99922917e-07 
       5.99778989e-07       0.00000000e+00      -5.99922917e-07 
       5.99778989e-07       0.00000000e+00      -5.99922917e-07 
      -8.48215580e-07       0.00000000e+00       4.80844365e-04 
       0.00000000e+00       0.00000000e+00       4.79995946e-04 
       8.48215580e-07       0.00000000e+00       4.79147527e-04 
       0.00000000e+00       0.00000000e+00       4.79995946e-04 
      -8.48215580e-07       0.00000000e+00       8.48419125e-07 
       0.00000000e+00       0.00000000e+00       0.00000000e+00 
       8.48215580e-07       0.00000000e+00      -8.48419125e-07 
       0.00000000e+00       0.00000000e+00       0.00000000e+00 
      -5.99778988e-07       0.00000000e+00       2.40597896e-04 
      -5.99778988e-07       0.00000000e+00       2.40597896e-04 
       5.99778988e-07       0.00000000e+00       2.39398050e-04 
       5.99778988e-07       0.00000000e+00       2.39398050e-04 

