# vtk DataFile Version 2.0
./output/static_plastic_von_mises_truss/static_plastic_von_mises_truss_0170.vtk
ASCII
DATASET UNSTRUCTURED_GRID

POINTS 40 float
       2.497006e-03      -3.535534e-03      -2.502990e-03 
       2.497006e-03       3.535534e-03      -2.502990e-03 
      -2.497006e-03       3.535534e-03       2.502990e-03 
      -2.497006e-03      -3.535534e-03       2.502990e-03 
       1.002497e+00      -3.535534e-03       9.951063e-01 
       1.002497e+00       3.535534e-03       9.951063e-01 
       9.975030e-01       3.535534e-03       1.000112e+00 
       9.975030e-01      -3.535534e-03       1.000112e+00 
       3.531300e-03       0.000000e+00      -3.539763e-03 
       0.000000e+00       5.000000e-03       0.000000e+00 
      -3.531300e-03       0.000000e+00       3.539763e-03 
       0.000000e+00      -5.000000e-03       0.000000e+00 
       1.003531e+00       0.000000e+00       9.940695e-01 
       1.000000e+00       5.000000e-03       9.976092e-01 
       9.964687e-01       0.000000e+00       1.001149e+00 
       1.000000e+00      -5.000000e-03       9.976092e-01 
       5.024970e-01      -3.535534e-03       4.963016e-01 
       5.024970e-01       3.535534e-03       4.963016e-01 
       4.975030e-01       3.535534e-03       5.013076e-01 
       4.975030e-01      -3.535534e-03       5.013076e-01 
       9.975030e-01      -3.535534e-03       9.951063e-01 
       9.975030e-01       3.535534e-03       9.951063e-01 
       1.002497e+00       3.535534e-03       1.000112e+00 
       1.002497e+00      -3.535534e-03       1.000112e+00 
       1.997503e+00      -3.535534e-03      -2.502990e-03 
       1.997503e+00       3.535534e-03      -2.502990e-03 
       2.002497e+00       3.535534e-03       2.502990e-03 
       2.002497e+00      -3.535534e-03       2.502990e-03 
       9.964687e-01       0.000000e+00       9.940695e-01 
       1.000000e+00       5.000000e-03       9.976092e-01 
       1.003531e+00       0.000000e+00       1.001149e+00 
       1.000000e+00      -5.000000e-03       9.976092e-01 
       1.996469e+00       0.000000e+00      -3.539763e-03 
       2.000000e+00       5.000000e-03       0.000000e+00 
       2.003531e+00       0.000000e+00       3.539763e-03 
       2.000000e+00      -5.000000e-03       0.000000e+00 
       1.497503e+00      -3.535534e-03       4.963016e-01 
       1.497503e+00       3.535534e-03       4.963016e-01 
       1.502497e+00       3.535534e-03       5.013076e-01 
       1.502497e+00      -3.535534e-03       5.013076e-01 

CELLS 2 42
20 0 1 2 3 4 5 6 7 8 9 10 11 12 13 14 15 16 17 18 19 
20 20 21 22 23 24 25 26 27 28 29 30 31 32 33 34 35 36 37 38 39 

CELL_TYPES 2
 25
 25

POINT_DATA        40 
VECTORS Displacements float
      -2.99380521e-06       1.30104261e-18      -2.99022435e-06 
      -2.99380521e-06      -1.30104261e-18      -2.99022435e-06 
       2.99380521e-06      -1.30104261e-18       2.99022435e-06 
       2.99380521e-06       1.30104261e-18       2.99022435e-06 
      -2.99380521e-06       1.30104261e-18      -2.39374249e-03 
      -2.99380521e-06      -1.30104261e-18      -2.39374249e-03 
       2.99380521e-06      -1.30104261e-18      -2.38776204e-03 
       2.99380521e-06       1.30104261e-18      -2.38776204e-03 
      -4.23387993e-06       0.00000000e+00      -4.22881583e-06 
       0.00000000e+00      -1.73472348e-18       0.00000000e+00 
       4.23387993e-06       0.00000000e+00       4.22881583e-06 
       0.00000000e+00       1.73472348e-18       0.00000000e+00 
      -4.23387993e-06       0.00000000e+00      -2.39498108e-03 
       0.00000000e+00      -1.73472348e-18      -2.39075227e-03 
       4.23387993e-06       0.00000000e+00      -2.38652345e-03 
       0.00000000e+00       1.73472348e-18      -2.39075227e-03 
      -2.99380521e-06       1.30104261e-18      -1.19836636e-03 
      -2.99380521e-06      -1.30104261e-18      -1.19836636e-03 
       2.99380521e-06      -1.30104261e-18      -1.19238591e-03 
       2.99380521e-06       1.30104261e-18      -1.19238591e-03 
       2.99380521e-06       1.30104261e-18      -2.39374249e-03 
       2.99380521e-06      -1.30104261e-18      -2.39374249e-03 
      -2.99380521e-06      -1.30104261e-18      -2.38776204e-03 
      -2.99380521e-06       1.30104261e-18      -2.38776204e-03 
       2.99380521e-06       1.30104261e-18      -2.99022435e-06 
       2.99380521e-06      -1.30104261e-18      -2.99022435e-06 
      -2.99380521e-06      -1.30104261e-18       2.99022435e-06 
      -2.99380521e-06       1.30104261e-18       2.99022435e-06 
       4.23387993e-06       0.00000000e+00      -2.39498108e-03 
       0.00000000e+00      -1.73472348e-18      -2.39075227e-03 
      -4.23387993e-06       0.00000000e+00      -2.38652345e-03 
       0.00000000e+00       1.73472348e-18      -2.39075227e-03 
       4.23387993e-06       0.00000000e+00      -4.22881583e-06 
       0.00000000e+00      -1.73472348e-18       0.00000000e+00 
      -4.23387993e-06       0.00000000e+00       4.22881583e-06 
       0.00000000e+00       1.73472348e-18       0.00000000e+00 
       2.99380521e-06       1.30104261e-18      -1.19836636e-03 
       2.99380521e-06      -1.30104261e-18      -1.19836636e-03 
      -2.99380521e-06      -1.30104261e-18      -1.19238591e-03 
      -2.99380521e-06       1.30104261e-18      -1.19238591e-03 

