# vtk DataFile Version 2.0
./output/static_plastic_von_mises_truss/static_plastic_von_mises_truss_0263.vtk
ASCII
DATASET UNSTRUCTURED_GRID

POINTS 40 float
       2.501825e-03      -3.535534e-03      -2.498173e-03 
       2.501825e-03       3.535534e-03      -2.498173e-03 
      -2.501825e-03       3.535534e-03       2.498173e-03 
      -2.501825e-03      -3.535534e-03       2.498173e-03 
       1.002502e+00      -3.535534e-03       9.989638e-01 
       1.002502e+00       3.535534e-03       9.989638e-01 
       9.974982e-01       3.535534e-03       1.003960e+00 
       9.974982e-01      -3.535534e-03       1.003960e+00 
       3.538115e-03       0.000000e+00      -3.532950e-03 
       0.000000e+00       5.000000e-03       0.000000e+00 
      -3.538115e-03       0.000000e+00       3.532950e-03 
       0.000000e+00      -5.000000e-03       0.000000e+00 
       1.003538e+00       0.000000e+00       9.979290e-01 
       1.000000e+00       5.000000e-03       1.001462e+00 
       9.964619e-01       0.000000e+00       1.004995e+00 
       1.000000e+00      -5.000000e-03       1.001462e+00 
       5.025018e-01      -3.535534e-03       4.982328e-01 
       5.025018e-01       3.535534e-03       4.982328e-01 
       4.974982e-01       3.535534e-03       5.032292e-01 
       4.974982e-01      -3.535534e-03       5.032292e-01 
       9.974982e-01      -3.535534e-03       9.989638e-01 
       9.974982e-01       3.535534e-03       9.989638e-01 
       1.002502e+00       3.535534e-03       1.003960e+00 
       1.002502e+00      -3.535534e-03       1.003960e+00 
       1.997498e+00      -3.535534e-03      -2.498173e-03 
       1.997498e+00       3.535534e-03      -2.498173e-03 
       2.002502e+00       3.535534e-03       2.498173e-03 
       2.002502e+00      -3.535534e-03       2.498173e-03 
       9.964619e-01       0.000000e+00       9.979290e-01 
       1.000000e+00       5.000000e-03       1.001462e+00 
       1.003538e+00       0.000000e+00       1.004995e+00 
       1.000000e+00      -5.000000e-03       1.001462e+00 
       1.996462e+00       0.000000e+00      -3.532950e-03 
       2.000000e+00       5.000000e-03       0.000000e+00 
       2.003538e+00       0.000000e+00       3.532950e-03 
       2.000000e+00      -5.000000e-03       0.000000e+00 
       1.497498e+00      -3.535534e-03       4.982328e-01 
       1.497498e+00       3.535534e-03       4.982328e-01 
       1.502502e+00       3.535534e-03       5.032292e-01 
       1.502502e+00      -3.535534e-03       5.032292e-01 

CELLS 2 42
20 0 1 2 3 4 5 6 7 8 9 10 11 12 13 14 15 16 17 18 19 
20 20 21 22 23 24 25 26 27 28 29 30 31 32 33 34 35 36 37 38 39 

CELL_TYPES 2
 25
 25

POINT_DATA        40 
VECTORS Displacements float
       1.82545369e-06       0.00000000e+00       1.82678757e-06 
       1.82545369e-06       0.00000000e+00       1.82678757e-06 
      -1.82545369e-06       0.00000000e+00      -1.82678757e-06 
      -1.82545369e-06       0.00000000e+00      -1.82678757e-06 
       1.82545369e-06       0.00000000e+00       1.46379157e-03 
       1.82545369e-06       0.00000000e+00       1.46379157e-03 
      -1.82545369e-06       0.00000000e+00       1.46013800e-03 
      -1.82545369e-06       0.00000000e+00       1.46013800e-03 
       2.58158136e-06       0.00000000e+00       2.58346776e-06 
       0.00000000e+00       0.00000000e+00       0.00000000e+00 
      -2.58158136e-06       0.00000000e+00      -2.58346776e-06 
       0.00000000e+00       0.00000000e+00       0.00000000e+00 
       2.58158136e-06       0.00000000e+00       1.46454825e-03 
       0.00000000e+00       0.00000000e+00       1.46196478e-03 
      -2.58158136e-06       0.00000000e+00       1.45938132e-03 
       0.00000000e+00       0.00000000e+00       1.46196478e-03 
       1.82545369e-06       0.00000000e+00       7.32809180e-04 
       1.82545369e-06       0.00000000e+00       7.32809180e-04 
      -1.82545369e-06       0.00000000e+00       7.29155605e-04 
      -1.82545369e-06       0.00000000e+00       7.29155605e-04 
      -1.82545369e-06       0.00000000e+00       1.46379157e-03 
      -1.82545369e-06       0.00000000e+00       1.46379157e-03 
       1.82545369e-06       0.00000000e+00       1.46013800e-03 
       1.82545369e-06       0.00000000e+00       1.46013800e-03 
      -1.82545369e-06       0.00000000e+00       1.82678757e-06 
      -1.82545369e-06       0.00000000e+00       1.82678757e-06 
       1.82545369e-06       0.00000000e+00      -1.82678757e-06 
       1.82545369e-06       0.00000000e+00      -1.82678757e-06 
      -2.58158136e-06       0.00000000e+00       1.46454825e-03 
       0.00000000e+00       0.00000000e+00       1.46196478e-03 
       2.58158136e-06       0.00000000e+00       1.45938132e-03 
       0.00000000e+00       0.00000000e+00       1.46196478e-03 
      -2.58158136e-06       0.00000000e+00       2.58346776e-06 
       0.00000000e+00       0.00000000e+00       0.00000000e+00 
       2.58158136e-06       0.00000000e+00      -2.58346776e-06 
       0.00000000e+00       0.00000000e+00       0.00000000e+00 
      -1.82545369e-06       0.00000000e+00       7.32809180e-04 
      -1.82545369e-06       0.00000000e+00       7.32809180e-04 
       1.82545369e-06       0.00000000e+00       7.29155605e-04 
       1.82545369e-06       0.00000000e+00       7.29155605e-04 

