# vtk DataFile Version 2.0
./output/static_plastic_von_mises_truss/static_plastic_von_mises_truss_0091.vtk
ASCII
DATASET UNSTRUCTURED_GRID

POINTS 40 float
       2.503084e-03      -3.535534e-03      -2.496913e-03 
       2.503084e-03       3.535534e-03      -2.496913e-03 
      -2.503084e-03       3.535534e-03       2.496913e-03 
      -2.503084e-03      -3.535534e-03       2.496913e-03 
       1.002503e+00      -3.535534e-03       9.999746e-01 
       1.002503e+00       3.535534e-03       9.999746e-01 
       9.974969e-01       3.535534e-03       1.004968e+00 
       9.974969e-01      -3.535534e-03       1.004968e+00 
       3.539895e-03       0.000000e+00      -3.531168e-03 
       0.000000e+00       5.000000e-03       0.000000e+00 
      -3.539895e-03       0.000000e+00       3.531168e-03 
       0.000000e+00      -5.000000e-03       0.000000e+00 
       1.003540e+00       0.000000e+00       9.989403e-01 
       1.000000e+00       5.000000e-03       1.002471e+00 
       9.964601e-01       0.000000e+00       1.006003e+00 
       1.000000e+00      -5.000000e-03       1.002471e+00 
       5.025031e-01      -3.535534e-03       4.987388e-01 
       5.025031e-01       3.535534e-03       4.987388e-01 
       4.974969e-01       3.535534e-03       5.037327e-01 
       4.974969e-01      -3.535534e-03       5.037327e-01 
       9.974969e-01      -3.535534e-03       9.999746e-01 
       9.974969e-01       3.535534e-03       9.999746e-01 
       1.002503e+00       3.535534e-03       1.004968e+00 
       1.002503e+00      -3.535534e-03       1.004968e+00 
       1.997497e+00      -3.535534e-03      -2.496913e-03 
       1.997497e+00       3.535534e-03      -2.496913e-03 
       2.002503e+00       3.535534e-03       2.496913e-03 
       2.002503e+00      -3.535534e-03       2.496913e-03 
       9.964601e-01       0.000000e+00       9.989403e-01 
       1.000000e+00       5.000000e-03       1.002471e+00 
       1.003540e+00       0.000000e+00       1.006003e+00 
       1.000000e+00      -5.000000e-03       1.002471e+00 
       1.996460e+00       0.000000e+00      -3.531168e-03 
       2.000000e+00       5.000000e-03       0.000000e+00 
       2.003540e+00       0.000000e+00       3.531168e-03 
       2.000000e+00      -5.000000e-03       0.000000e+00 
       1.497497e+00      -3.535534e-03       4.987388e-01 
       1.497497e+00       3.535534e-03       4.987388e-01 
       1.502503e+00       3.535534e-03       5.037327e-01 
       1.502503e+00      -3.535534e-03       5.037327e-01 

CELLS 2 42
20 0 1 2 3 4 5 6 7 8 9 10 11 12 13 14 15 16 17 18 19 
20 20 21 22 23 24 25 26 27 28 29 30 31 32 33 34 35 36 37 38 39 

CELL_TYPES 2
 25
 25

POINT_DATA        40 
VECTORS Displacements float
       3.08364144e-06      -8.67361738e-19       3.08744967e-06 
       3.08364144e-06       8.67361738e-19       3.08744967e-06 
      -3.08364144e-06       8.67361738e-19      -3.08744967e-06 
      -3.08364144e-06      -8.67361738e-19      -3.08744967e-06 
       3.08364144e-06      -8.67361738e-19       2.47457613e-03 
       3.08364144e-06       8.67361738e-19       2.47457613e-03 
      -3.08364144e-06       8.67361738e-19       2.46840123e-03 
      -3.08364144e-06      -8.67361738e-19       2.46840123e-03 
       4.36092754e-06       0.00000000e+00       4.36631320e-06 
       0.00000000e+00       8.67361738e-19       0.00000000e+00 
      -4.36092754e-06       0.00000000e+00      -4.36631320e-06 
       0.00000000e+00      -8.67361738e-19       0.00000000e+00 
       4.36092754e-06       0.00000000e+00       2.47585500e-03 
       0.00000000e+00       8.67361738e-19       2.47148868e-03 
      -4.36092754e-06       0.00000000e+00       2.46712237e-03 
       0.00000000e+00      -8.67361738e-19       2.47148868e-03 
       3.08364144e-06      -8.67361738e-19       1.23883179e-03 
       3.08364144e-06       8.67361738e-19       1.23883179e-03 
      -3.08364144e-06       8.67361738e-19       1.23265689e-03 
      -3.08364144e-06      -8.67361738e-19       1.23265689e-03 
      -3.08364144e-06      -8.67361738e-19       2.47457613e-03 
      -3.08364144e-06       8.67361738e-19       2.47457613e-03 
       3.08364144e-06       8.67361738e-19       2.46840123e-03 
       3.08364144e-06      -8.67361738e-19       2.46840123e-03 
      -3.08364144e-06      -8.67361738e-19       3.08744967e-06 
      -3.08364144e-06       8.67361738e-19       3.08744967e-06 
       3.08364144e-06       8.67361738e-19      -3.08744967e-06 
       3.08364144e-06      -8.67361738e-19      -3.08744967e-06 
      -4.36092754e-06       0.00000000e+00       2.47585500e-03 
       0.00000000e+00       8.67361738e-19       2.47148868e-03 
       4.36092754e-06       0.00000000e+00       2.46712237e-03 
       0.00000000e+00      -8.67361738e-19       2.47148868e-03 
      -4.36092754e-06       0.00000000e+00       4.36631320e-06 
       0.00000000e+00       8.67361738e-19       0.00000000e+00 
       4.36092754e-06       0.00000000e+00      -4.36631320e-06 
       0.00000000e+00      -8.67361738e-19       0.00000000e+00 
      -3.08364144e-06      -8.67361738e-19       1.23883179e-03 
      -3.08364144e-06       8.67361738e-19       1.23883179e-03 
       3.08364144e-06       8.67361738e-19       1.23265689e-03 
       3.08364144e-06      -8.67361738e-19       1.23265689e-03 

