# vtk DataFile Version 2.0
./output/static_plastic_von_mises_truss/static_plastic_von_mises_truss_0164.vtk
ASCII
DATASET UNSTRUCTURED_GRID

POINTS 40 float
       2.496476e-03      -3.535534e-03      -2.503519e-03 
       2.496476e-03       3.535534e-03      -2.503519e-03 
      -2.496476e-03       3.535534e-03       2.503519e-03 
      -2.496476e-03      -3.535534e-03       2.503519e-03 
       1.002496e+00      -3.535534e-03       9.946834e-01 
       1.002496e+00       3.535534e-03       9.946834e-01 
       9.975035e-01       3.535534e-03       9.996904e-01 
       9.975035e-01      -3.535534e-03       9.996904e-01 
       3.530551e-03       0.000000e+00      -3.540510e-03 
       0.000000e+00       5.000000e-03       0.000000e+00 
      -3.530551e-03       0.000000e+00       3.540510e-03 
       0.000000e+00      -5.000000e-03       0.000000e+00 
       1.003531e+00       0.000000e+00       9.936464e-01 
       1.000000e+00       5.000000e-03       9.971869e-01 
       9.964694e-01       0.000000e+00       1.000727e+00 
       1.000000e+00      -5.000000e-03       9.971869e-01 
       5.024965e-01      -3.535534e-03       4.960899e-01 
       5.024965e-01       3.535534e-03       4.960899e-01 
       4.975035e-01       3.535534e-03       5.010970e-01 
       4.975035e-01      -3.535534e-03       5.010970e-01 
       9.975035e-01      -3.535534e-03       9.946834e-01 
       9.975035e-01       3.535534e-03       9.946834e-01 
       1.002496e+00       3.535534e-03       9.996904e-01 
       1.002496e+00      -3.535534e-03       9.996904e-01 
       1.997504e+00      -3.535534e-03      -2.503519e-03 
       1.997504e+00       3.535534e-03      -2.503519e-03 
       2.002496e+00       3.535534e-03       2.503519e-03 
       2.002496e+00      -3.535534e-03       2.503519e-03 
       9.964694e-01       0.000000e+00       9.936464e-01 
       1.000000e+00       5.000000e-03       9.971869e-01 
       1.003531e+00       0.000000e+00       1.000727e+00 
       1.000000e+00      -5.000000e-03       9.971869e-01 
       1.996469e+00       0.000000e+00      -3.540510e-03 
       2.000000e+00       5.000000e-03       0.000000e+00 
       2.003531e+00       0.000000e+00       3.540510e-03 
       2.000000e+00      -5.000000e-03       0.000000e+00 
       1.497504e+00      -3.535534e-03       4.960899e-01 
       1.497504e+00       3.535534e-03       4.960899e-01 
       1.502496e+00       3.535534e-03       5.010970e-01 
       1.502496e+00      -3.535534e-03       5.010970e-01 

CELLS 2 42
20 0 1 2 3 4 5 6 7 8 9 10 11 12 13 14 15 16 17 18 19 
20 20 21 22 23 24 25 26 27 28 29 30 31 32 33 34 35 36 37 38 39 

CELL_TYPES 2
 25
 25

POINT_DATA        40 
VECTORS Displacements float
      -3.52379557e-06       0.00000000e+00      -3.51883570e-06 
      -3.52379557e-06       0.00000000e+00      -3.51883570e-06 
       3.52379557e-06       0.00000000e+00       3.51883570e-06 
       3.52379557e-06       0.00000000e+00       3.51883570e-06 
      -3.52379557e-06       0.00000000e+00      -2.81661182e-03 
      -3.52379557e-06       0.00000000e+00      -2.81661182e-03 
       3.52379557e-06       0.00000000e+00      -2.80957415e-03 
       3.52379557e-06       0.00000000e+00      -2.80957415e-03 
      -4.98339948e-06       0.00000000e+00      -4.97638517e-06 
       0.00000000e+00       0.00000000e+00       0.00000000e+00 
       4.98339948e-06       0.00000000e+00       4.97638517e-06 
       0.00000000e+00       0.00000000e+00       0.00000000e+00 
      -4.98339948e-06       0.00000000e+00      -2.81806937e-03 
       0.00000000e+00       0.00000000e+00      -2.81309298e-03 
       4.98339948e-06       0.00000000e+00      -2.80811660e-03 
       0.00000000e+00       0.00000000e+00      -2.81309298e-03 
      -3.52379557e-06       0.00000000e+00      -1.41006533e-03 
      -3.52379557e-06       0.00000000e+00      -1.41006533e-03 
       3.52379557e-06       0.00000000e+00      -1.40302766e-03 
       3.52379557e-06       0.00000000e+00      -1.40302766e-03 
       3.52379557e-06       0.00000000e+00      -2.81661182e-03 
       3.52379557e-06       0.00000000e+00      -2.81661182e-03 
      -3.52379557e-06       0.00000000e+00      -2.80957415e-03 
      -3.52379557e-06       0.00000000e+00      -2.80957415e-03 
       3.52379557e-06       0.00000000e+00      -3.51883570e-06 
       3.52379557e-06       0.00000000e+00      -3.51883570e-06 
      -3.52379557e-06       0.00000000e+00       3.51883570e-06 
      -3.52379557e-06       0.00000000e+00       3.51883570e-06 
       4.98339948e-06       0.00000000e+00      -2.81806937e-03 
       0.00000000e+00       0.00000000e+00      -2.81309298e-03 
      -4.98339948e-06       0.00000000e+00      -2.80811660e-03 
       0.00000000e+00       0.00000000e+00      -2.81309298e-03 
       4.98339948e-06       0.00000000e+00      -4.97638517e-06 
       0.00000000e+00       0.00000000e+00       0.00000000e+00 
      -4.98339948e-06       0.00000000e+00       4.97638517e-06 
       0.00000000e+00       0.00000000e+00       0.00000000e+00 
       3.52379557e-06       0.00000000e+00      -1.41006533e-03 
       3.52379557e-06       0.00000000e+00      -1.41006533e-03 
      -3.52379557e-06       0.00000000e+00      -1.40302766e-03 
      -3.52379557e-06       0.00000000e+00      -1.40302766e-03 

