# vtk DataFile Version 2.0
./output/static_plastic_von_mises_truss/static_plastic_von_mises_truss_0084.vtk
ASCII
DATASET UNSTRUCTURED_GRID

POINTS 40 float
       2.503683e-03      -3.535534e-03      -2.496312e-03 
       2.503683e-03       3.535534e-03      -2.496312e-03 
      -2.503683e-03       3.535534e-03       2.496312e-03 
      -2.503683e-03      -3.535534e-03       2.496312e-03 
       1.002504e+00      -3.535534e-03       1.000456e+00 
       1.002504e+00       3.535534e-03       1.000456e+00 
       9.974963e-01       3.535534e-03       1.005449e+00 
       9.974963e-01      -3.535534e-03       1.005449e+00 
       3.540742e-03       0.000000e+00      -3.530318e-03 
       0.000000e+00       5.000000e-03       0.000000e+00 
      -3.540742e-03       0.000000e+00       3.530318e-03 
       0.000000e+00      -5.000000e-03       0.000000e+00 
       1.003541e+00       0.000000e+00       9.994223e-01 
       1.000000e+00       5.000000e-03       1.002953e+00 
       9.964593e-01       0.000000e+00       1.006483e+00 
       1.000000e+00      -5.000000e-03       1.002953e+00 
       5.025037e-01      -3.535534e-03       4.989800e-01 
       5.025037e-01       3.535534e-03       4.989800e-01 
       4.974963e-01       3.535534e-03       5.039726e-01 
       4.974963e-01      -3.535534e-03       5.039726e-01 
       9.974963e-01      -3.535534e-03       1.000456e+00 
       9.974963e-01       3.535534e-03       1.000456e+00 
       1.002504e+00       3.535534e-03       1.005449e+00 
       1.002504e+00      -3.535534e-03       1.005449e+00 
       1.997496e+00      -3.535534e-03      -2.496312e-03 
       1.997496e+00       3.535534e-03      -2.496312e-03 
       2.002504e+00       3.535534e-03       2.496312e-03 
       2.002504e+00      -3.535534e-03       2.496312e-03 
       9.964593e-01       0.000000e+00       9.994223e-01 
       1.000000e+00       5.000000e-03       1.002953e+00 
       1.003541e+00       0.000000e+00       1.006483e+00 
       1.000000e+00      -5.000000e-03       1.002953e+00 
       1.996459e+00       0.000000e+00      -3.530318e-03 
       2.000000e+00       5.000000e-03       0.000000e+00 
       2.003541e+00       0.000000e+00       3.530318e-03 
       2.000000e+00      -5.000000e-03       0.000000e+00 
       1.497496e+00      -3.535534e-03       4.989800e-01 
       1.497496e+00       3.535534e-03       4.989800e-01 
       1.502504e+00       3.535534e-03       5.039726e-01 
       1.502504e+00      -3.535534e-03       5.039726e-01 

CELLS 2 42
20 0 1 2 3 4 5 6 7 8 9 10 11 12 13 14 15 16 17 18 19 
20 20 21 22 23 24 25 26 27 28 29 30 31 32 33 34 35 36 37 38 39 

CELL_TYPES 2
 25
 25

POINT_DATA        40 
VECTORS Displacements float
       3.68263997e-06       0.00000000e+00       3.68807272e-06 
       3.68263997e-06       0.00000000e+00       3.68807272e-06 
      -3.68263997e-06       0.00000000e+00      -3.68807272e-06 
      -3.68263997e-06       0.00000000e+00      -3.68807272e-06 
       3.68263997e-06       0.00000000e+00       2.95632897e-03 
       3.68263997e-06       0.00000000e+00       2.95632897e-03 
      -3.68263997e-06       0.00000000e+00       2.94895283e-03 
      -3.68263997e-06       0.00000000e+00       2.94895283e-03 
       5.20803940e-06       0.00000000e+00       5.21572246e-06 
       0.00000000e+00       0.00000000e+00       0.00000000e+00 
      -5.20803940e-06       0.00000000e+00      -5.21572246e-06 
       0.00000000e+00       0.00000000e+00       0.00000000e+00 
       5.20803940e-06       0.00000000e+00       2.95785662e-03 
       0.00000000e+00       0.00000000e+00       2.95264090e-03 
      -5.20803940e-06       0.00000000e+00       2.94742518e-03 
       0.00000000e+00       0.00000000e+00       2.95264090e-03 
       3.68263997e-06       0.00000000e+00       1.48000852e-03 
       3.68263997e-06       0.00000000e+00       1.48000852e-03 
      -3.68263997e-06       0.00000000e+00       1.47263238e-03 
      -3.68263997e-06       0.00000000e+00       1.47263238e-03 
      -3.68263997e-06       0.00000000e+00       2.95632897e-03 
      -3.68263997e-06       0.00000000e+00       2.95632897e-03 
       3.68263997e-06       0.00000000e+00       2.94895283e-03 
       3.68263997e-06       0.00000000e+00       2.94895283e-03 
      -3.68263997e-06       0.00000000e+00       3.68807272e-06 
      -3.68263997e-06       0.00000000e+00       3.68807272e-06 
       3.68263997e-06       0.00000000e+00      -3.68807272e-06 
       3.68263997e-06       0.00000000e+00      -3.68807272e-06 
      -5.20803940e-06       0.00000000e+00       2.95785662e-03 
       0.00000000e+00       0.00000000e+00       2.95264090e-03 
       5.20803940e-06       0.00000000e+00       2.94742518e-03 
       0.00000000e+00       0.00000000e+00       2.95264090e-03 
      -5.20803940e-06       0.00000000e+00       5.21572246e-06 
       0.00000000e+00       0.00000000e+00       0.00000000e+00 
       5.20803940e-06       0.00000000e+00      -5.21572246e-06 
       0.00000000e+00       0.00000000e+00       0.00000000e+00 
      -3.68263997e-06       0.00000000e+00       1.48000852e-03 
      -3.68263997e-06       0.00000000e+00       1.48000852e-03 
       3.68263997e-06       0.00000000e+00       1.47263238e-03 
       3.68263997e-06       0.00000000e+00       1.47263238e-03 

