# vtk DataFile Version 2.0
./output/static_plastic_von_mises_truss/static_plastic_von_mises_truss_0092.vtk
ASCII
DATASET UNSTRUCTURED_GRID

POINTS 40 float
       2.502998e-03      -3.535534e-03      -2.496998e-03 
       2.502998e-03       3.535534e-03      -2.496998e-03 
      -2.502998e-03       3.535534e-03       2.496998e-03 
      -2.502998e-03      -3.535534e-03       2.496998e-03 
       1.002503e+00      -3.535534e-03       9.999057e-01 
       1.002503e+00       3.535534e-03       9.999057e-01 
       9.974970e-01       3.535534e-03       1.004900e+00 
       9.974970e-01      -3.535534e-03       1.004900e+00 
       3.539774e-03       0.000000e+00      -3.531289e-03 
       0.000000e+00       5.000000e-03       0.000000e+00 
      -3.539774e-03       0.000000e+00       3.531289e-03 
       0.000000e+00      -5.000000e-03       0.000000e+00 
       1.003540e+00       0.000000e+00       9.988714e-01 
       1.000000e+00       5.000000e-03       1.002403e+00 
       9.964602e-01       0.000000e+00       1.005934e+00 
       1.000000e+00      -5.000000e-03       1.002403e+00 
       5.025030e-01      -3.535534e-03       4.987044e-01 
       5.025030e-01       3.535534e-03       4.987044e-01 
       4.974970e-01       3.535534e-03       5.036984e-01 
       4.974970e-01      -3.535534e-03       5.036984e-01 
       9.974970e-01      -3.535534e-03       9.999057e-01 
       9.974970e-01       3.535534e-03       9.999057e-01 
       1.002503e+00       3.535534e-03       1.004900e+00 
       1.002503e+00      -3.535534e-03       1.004900e+00 
       1.997497e+00      -3.535534e-03      -2.496998e-03 
       1.997497e+00       3.535534e-03      -2.496998e-03 
       2.002503e+00       3.535534e-03       2.496998e-03 
       2.002503e+00      -3.535534e-03       2.496998e-03 
       9.964602e-01       0.000000e+00       9.988714e-01 
       1.000000e+00       5.000000e-03       1.002403e+00 
       1.003540e+00       0.000000e+00       1.005934e+00 
       1.000000e+00      -5.000000e-03       1.002403e+00 
       1.996460e+00       0.000000e+00      -3.531289e-03 
       2.000000e+00       5.000000e-03       0.000000e+00 
       2.003540e+00       0.000000e+00       3.531289e-03 
       2.000000e+00      -5.000000e-03       0.000000e+00 
       1.497497e+00      -3.535534e-03       4.987044e-01 
       1.497497e+00       3.535534e-03       4.987044e-01 
       1.502503e+00       3.535534e-03       5.036984e-01 
       1.502503e+00      -3.535534e-03       5.036984e-01 

CELLS 2 42
20 0 1 2 3 4 5 6 7 8 9 10 11 12 13 14 15 16 17 18 19 
20 20 21 22 23 24 25 26 27 28 29 30 31 32 33 34 35 36 37 38 39 

CELL_TYPES 2
 25
 25

POINT_DATA        40 
VECTORS Displacements float
       2.99799982e-06       0.00000000e+00       3.00159934e-06 
       2.99799982e-06       0.00000000e+00       3.00159934e-06 
      -2.99799982e-06       0.00000000e+00      -3.00159934e-06 
      -2.99799982e-06       0.00000000e+00      -3.00159934e-06 
       2.99799982e-06       0.00000000e+00       2.40572607e-03 
       2.99799982e-06       0.00000000e+00       2.40572607e-03 
      -2.99799982e-06       0.00000000e+00       2.39972287e-03 
      -2.99799982e-06       0.00000000e+00       2.39972287e-03 
       4.23981201e-06       0.00000000e+00       4.24490250e-06 
       0.00000000e+00       0.00000000e+00       0.00000000e+00 
      -4.23981201e-06       0.00000000e+00      -4.24490250e-06 
       0.00000000e+00       0.00000000e+00       0.00000000e+00 
       4.23981201e-06       0.00000000e+00       2.40696938e-03 
      -1.11022302e-16       0.00000000e+00       2.40272447e-03 
      -4.23981201e-06       0.00000000e+00       2.39847957e-03 
      -1.11022302e-16       0.00000000e+00       2.40272447e-03 
       2.99799982e-06       0.00000000e+00       1.20436384e-03 
       2.99799982e-06       0.00000000e+00       1.20436384e-03 
      -2.99799982e-06       0.00000000e+00       1.19836064e-03 
      -2.99799982e-06       0.00000000e+00       1.19836064e-03 
      -2.99799982e-06       0.00000000e+00       2.40572607e-03 
      -2.99799982e-06       0.00000000e+00       2.40572607e-03 
       2.99799982e-06       0.00000000e+00       2.39972287e-03 
       2.99799982e-06       0.00000000e+00       2.39972287e-03 
      -2.99799982e-06       0.00000000e+00       3.00159934e-06 
      -2.99799982e-06       0.00000000e+00       3.00159934e-06 
       2.99799982e-06       0.00000000e+00      -3.00159934e-06 
       2.99799982e-06       0.00000000e+00      -3.00159934e-06 
      -4.23981201e-06       0.00000000e+00       2.40696938e-03 
       0.00000000e+00       0.00000000e+00       2.40272447e-03 
       4.23981201e-06       0.00000000e+00       2.39847957e-03 
       0.00000000e+00       0.00000000e+00       2.40272447e-03 
      -4.23981201e-06       0.00000000e+00       4.24490250e-06 
       0.00000000e+00       0.00000000e+00       0.00000000e+00 
       4.23981201e-06       0.00000000e+00      -4.24490250e-06 
       0.00000000e+00       0.00000000e+00       0.00000000e+00 
      -2.99799982e-06       0.00000000e+00       1.20436384e-03 
      -2.99799982e-06       0.00000000e+00       1.20436384e-03 
       2.99799982e-06       0.00000000e+00       1.19836064e-03 
       2.99799982e-06       0.00000000e+00       1.19836064e-03 

