# vtk DataFile Version 2.0
./output/static_plastic_von_mises_truss/static_plastic_von_mises_truss_0206.vtk
ASCII
DATASET UNSTRUCTURED_GRID

POINTS 40 float
       2.500172e-03      -3.535534e-03      -2.499828e-03 
       2.500172e-03       3.535534e-03      -2.499828e-03 
      -2.500172e-03       3.535534e-03       2.499828e-03 
      -2.500172e-03      -3.535534e-03       2.499828e-03 
       1.002500e+00      -3.535534e-03       9.976378e-01 
       1.002500e+00       3.535534e-03       9.976378e-01 
       9.974998e-01       3.535534e-03       1.002637e+00 
       9.974998e-01      -3.535534e-03       1.002637e+00 
       3.535777e-03       0.000000e+00      -3.535291e-03 
       0.000000e+00       5.000000e-03       0.000000e+00 
      -3.535777e-03       0.000000e+00       3.535291e-03 
       0.000000e+00      -5.000000e-03       0.000000e+00 
       1.003536e+00       0.000000e+00       9.966024e-01 
       1.000000e+00       5.000000e-03       1.000138e+00 
       9.964642e-01       0.000000e+00       1.003673e+00 
       1.000000e+00      -5.000000e-03       1.000138e+00 
       5.025002e-01      -3.535534e-03       4.975690e-01 
       5.025002e-01       3.535534e-03       4.975690e-01 
       4.974998e-01       3.535534e-03       5.025687e-01 
       4.974998e-01      -3.535534e-03       5.025687e-01 
       9.974998e-01      -3.535534e-03       9.976378e-01 
       9.974998e-01       3.535534e-03       9.976378e-01 
       1.002500e+00       3.535534e-03       1.002637e+00 
       1.002500e+00      -3.535534e-03       1.002637e+00 
       1.997500e+00      -3.535534e-03      -2.499828e-03 
       1.997500e+00       3.535534e-03      -2.499828e-03 
       2.002500e+00       3.535534e-03       2.499828e-03 
       2.002500e+00      -3.535534e-03       2.499828e-03 
       9.964642e-01       0.000000e+00       9.966024e-01 
       1.000000e+00       5.000000e-03       1.000138e+00 
       1.003536e+00       0.000000e+00       1.003673e+00 
       1.000000e+00      -5.000000e-03       1.000138e+00 
       1.996464e+00       0.000000e+00      -3.535291e-03 
       2.000000e+00       5.000000e-03       0.000000e+00 
       2.003536e+00       0.000000e+00       3.535291e-03 
       2.000000e+00      -5.000000e-03       0.000000e+00 
       1.497500e+00      -3.535534e-03       4.975690e-01 
       1.497500e+00       3.535534e-03       4.975690e-01 
       1.502500e+00       3.535534e-03       5.025687e-01 
       1.502500e+00      -3.535534e-03       5.025687e-01 

CELLS 2 42
20 0 1 2 3 4 5 6 7 8 9 10 11 12 13 14 15 16 17 18 19 
20 20 21 22 23 24 25 26 27 28 29 30 31 32 33 34 35 36 37 38 39 

CELL_TYPES 2
 25
 25

POINT_DATA        40 
VECTORS Displacements float
       1.72072101e-07       0.00000000e+00       1.72083946e-07 
       1.72072101e-07       0.00000000e+00       1.72083946e-07 
      -1.72072101e-07       0.00000000e+00      -1.72083946e-07 
      -1.72072101e-07       0.00000000e+00      -1.72083946e-07 
       1.72072101e-07       0.00000000e+00       1.37843979e-04 
       1.72072101e-07       0.00000000e+00       1.37843979e-04 
      -1.72072101e-07       0.00000000e+00       1.37499811e-04 
      -1.72072101e-07       0.00000000e+00       1.37499811e-04 
       2.43346700e-07       0.00000000e+00       2.43363450e-07 
       0.00000000e+00       0.00000000e+00       0.00000000e+00 
      -2.43346700e-07       0.00000000e+00      -2.43363450e-07 
       0.00000000e+00       0.00000000e+00       0.00000000e+00 
       2.43346700e-07       0.00000000e+00       1.37915259e-04 
       0.00000000e+00       0.00000000e+00       1.37671895e-04 
      -2.43346700e-07       0.00000000e+00       1.37428532e-04 
       0.00000000e+00       0.00000000e+00       1.37671895e-04 
       1.72072101e-07       0.00000000e+00       6.90080316e-05 
       1.72072101e-07       0.00000000e+00       6.90080316e-05 
      -1.72072101e-07       0.00000000e+00       6.86638637e-05 
      -1.72072101e-07       0.00000000e+00       6.86638637e-05 
      -1.72072101e-07       0.00000000e+00       1.37843979e-04 
      -1.72072101e-07       0.00000000e+00       1.37843979e-04 
       1.72072101e-07       0.00000000e+00       1.37499811e-04 
       1.72072101e-07       0.00000000e+00       1.37499811e-04 
      -1.72072101e-07       0.00000000e+00       1.72083946e-07 
      -1.72072101e-07       0.00000000e+00       1.72083946e-07 
       1.72072101e-07       0.00000000e+00      -1.72083946e-07 
       1.72072101e-07       0.00000000e+00      -1.72083946e-07 
      -2.43346700e-07       0.00000000e+00       1.37915259e-04 
       0.00000000e+00       0.00000000e+00       1.37671895e-04 
       2.43346700e-07       0.00000000e+00       1.37428532e-04 
       0.00000000e+00       0.00000000e+00       1.37671895e-04 
      -2.43346700e-07       0.00000000e+00       2.43363450e-07 
       0.00000000e+00       0.00000000e+00       0.00000000e+00 
       2.43346700e-07       0.00000000e+00      -2.43363450e-07 
       0.00000000e+00       0.00000000e+00       0.00000000e+00 
      -1.72072101e-07       0.00000000e+00       6.90080316e-05 
      -1.72072101e-07       0.00000000e+00       6.90080316e-05 
       1.72072101e-07       0.00000000e+00       6.86638637e-05 
       1.72072101e-07       0.00000000e+00       6.86638637e-05 

