# vtk DataFile Version 2.0
./output/static_plastic_von_mises_truss/static_plastic_von_mises_truss_0254.vtk
ASCII
DATASET UNSTRUCTURED_GRID

POINTS 40 float
       2.502622e-03      -3.535534e-03      -2.497376e-03 
       2.502622e-03       3.535534e-03      -2.497376e-03 
      -2.502622e-03       3.535534e-03       2.497376e-03 
      -2.502622e-03      -3.535534e-03       2.497376e-03 
       1.002503e+00      -3.535534e-03       9.996032e-01 
       1.002503e+00       3.535534e-03       9.996032e-01 
       9.974974e-01       3.535534e-03       1.004598e+00 
       9.974974e-01      -3.535534e-03       1.004598e+00 
       3.539241e-03       0.000000e+00      -3.531823e-03 
       0.000000e+00       5.000000e-03       0.000000e+00 
      -3.539241e-03       0.000000e+00       3.531823e-03 
       0.000000e+00      -5.000000e-03       0.000000e+00 
       1.003539e+00       0.000000e+00       9.985687e-01 
       1.000000e+00       5.000000e-03       1.002101e+00 
       9.964608e-01       0.000000e+00       1.005632e+00 
       1.000000e+00      -5.000000e-03       1.002101e+00 
       5.025026e-01      -3.535534e-03       4.985529e-01 
       5.025026e-01       3.535534e-03       4.985529e-01 
       4.974974e-01       3.535534e-03       5.035476e-01 
       4.974974e-01      -3.535534e-03       5.035476e-01 
       9.974974e-01      -3.535534e-03       9.996032e-01 
       9.974974e-01       3.535534e-03       9.996032e-01 
       1.002503e+00       3.535534e-03       1.004598e+00 
       1.002503e+00      -3.535534e-03       1.004598e+00 
       1.997497e+00      -3.535534e-03      -2.497376e-03 
       1.997497e+00       3.535534e-03      -2.497376e-03 
       2.002503e+00       3.535534e-03       2.497376e-03 
       2.002503e+00      -3.535534e-03       2.497376e-03 
       9.964608e-01       0.000000e+00       9.985687e-01 
       1.000000e+00       5.000000e-03       1.002101e+00 
       1.003539e+00       0.000000e+00       1.005632e+00 
       1.000000e+00      -5.000000e-03       1.002101e+00 
       1.996461e+00       0.000000e+00      -3.531823e-03 
       2.000000e+00       5.000000e-03       0.000000e+00 
       2.003539e+00       0.000000e+00       3.531823e-03 
       2.000000e+00      -5.000000e-03       0.000000e+00 
       1.497497e+00      -3.535534e-03       4.985529e-01 
       1.497497e+00       3.535534e-03       4.985529e-01 
       1.502503e+00       3.535534e-03       5.035476e-01 
       1.502503e+00      -3.535534e-03       5.035476e-01 

CELLS 2 42
20 0 1 2 3 4 5 6 7 8 9 10 11 12 13 14 15 16 17 18 19 
20 20 21 22 23 24 25 26 27 28 29 30 31 32 33 34 35 36 37 38 39 

CELL_TYPES 2
 25
 25

POINT_DATA        40 
VECTORS Displacements float
       2.62154514e-06       8.67361738e-19       2.62429703e-06 
       2.62154514e-06      -8.67361738e-19       2.62429703e-06 
      -2.62154514e-06      -8.67361738e-19      -2.62429703e-06 
      -2.62154514e-06       8.67361738e-19      -2.62429703e-06 
       2.62154514e-06       8.67361738e-19       2.10316614e-03 
       2.62154514e-06      -8.67361738e-19       2.10316614e-03 
      -2.62154514e-06      -8.67361738e-19       2.09791755e-03 
      -2.62154514e-06       8.67361738e-19       2.09791755e-03 
       3.70742469e-06       0.00000000e+00       3.71131645e-06 
       0.00000000e+00      -8.67361738e-19       0.00000000e+00 
      -3.70742469e-06       0.00000000e+00      -3.71131645e-06 
       0.00000000e+00       8.67361738e-19       0.00000000e+00 
       3.70742469e-06       0.00000000e+00       2.10425316e-03 
      -1.11022302e-16      -8.67361738e-19       2.10054185e-03 
      -3.70742469e-06       0.00000000e+00       2.09683053e-03 
      -1.11022302e-16       8.67361738e-19       2.10054185e-03 
       2.62154514e-06       8.67361738e-19       1.05289522e-03 
       2.62154514e-06      -8.67361738e-19       1.05289522e-03 
      -2.62154514e-06      -8.67361738e-19       1.04764663e-03 
      -2.62154514e-06       8.67361738e-19       1.04764663e-03 
      -2.62154514e-06       8.67361738e-19       2.10316614e-03 
      -2.62154514e-06      -8.67361738e-19       2.10316614e-03 
       2.62154514e-06      -8.67361738e-19       2.09791755e-03 
       2.62154514e-06       8.67361738e-19       2.09791755e-03 
      -2.62154514e-06       8.67361738e-19       2.62429703e-06 
      -2.62154514e-06      -8.67361738e-19       2.62429703e-06 
       2.62154514e-06      -8.67361738e-19      -2.62429703e-06 
       2.62154514e-06       8.67361738e-19      -2.62429703e-06 
      -3.70742469e-06       0.00000000e+00       2.10425316e-03 
       0.00000000e+00      -8.67361738e-19       2.10054185e-03 
       3.70742469e-06       0.00000000e+00       2.09683053e-03 
       0.00000000e+00       8.67361738e-19       2.10054185e-03 
      -3.70742469e-06       0.00000000e+00       3.71131645e-06 
       0.00000000e+00      -8.67361738e-19       0.00000000e+00 
       3.70742469e-06       0.00000000e+00      -3.71131645e-06 
       0.00000000e+00       8.67361738e-19       0.00000000e+00 
      -2.62154514e-06       8.67361738e-19       1.05289522e-03 
      -2.62154514e-06      -8.67361738e-19       1.05289522e-03 
       2.62154514e-06      -8.67361738e-19       1.04764663e-03 
       2.62154514e-06       8.67361738e-19       1.04764663e-03 

