# vtk DataFile Version 2.0
./output/static_plastic_von_mises_truss/static_plastic_von_mises_truss_0145.vtk
ASCII
DATASET UNSTRUCTURED_GRID

POINTS 40 float
       2.494793e-03      -3.535534e-03      -2.505196e-03 
       2.494793e-03       3.535534e-03      -2.505196e-03 
      -2.494793e-03       3.535534e-03       2.505196e-03 
      -2.494793e-03      -3.535534e-03       2.505196e-03 
       1.002495e+00      -3.535534e-03       9.933425e-01 
       1.002495e+00       3.535534e-03       9.933425e-01 
       9.975052e-01       3.535534e-03       9.983529e-01 
       9.975052e-01      -3.535534e-03       9.983529e-01 
       3.528171e-03       0.000000e+00      -3.542882e-03 
       0.000000e+00       5.000000e-03       0.000000e+00 
      -3.528171e-03       0.000000e+00       3.542882e-03 
       0.000000e+00      -5.000000e-03       0.000000e+00 
       1.003528e+00       0.000000e+00       9.923048e-01 
       1.000000e+00       5.000000e-03       9.958477e-01 
       9.964718e-01       0.000000e+00       9.993906e-01 
       1.000000e+00      -5.000000e-03       9.958477e-01 
       5.024948e-01      -3.535534e-03       4.954187e-01 
       5.024948e-01       3.535534e-03       4.954187e-01 
       4.975052e-01       3.535534e-03       5.004291e-01 
       4.975052e-01      -3.535534e-03       5.004291e-01 
       9.975052e-01      -3.535534e-03       9.933425e-01 
       9.975052e-01       3.535534e-03       9.933425e-01 
       1.002495e+00       3.535534e-03       9.983529e-01 
       1.002495e+00      -3.535534e-03       9.983529e-01 
       1.997505e+00      -3.535534e-03      -2.505196e-03 
       1.997505e+00       3.535534e-03      -2.505196e-03 
       2.002495e+00       3.535534e-03       2.505196e-03 
       2.002495e+00      -3.535534e-03       2.505196e-03 
       9.964718e-01       0.000000e+00       9.923048e-01 
       1.000000e+00       5.000000e-03       9.958477e-01 
       1.003528e+00       0.000000e+00       9.993906e-01 
       1.000000e+00      -5.000000e-03       9.958477e-01 
       1.996472e+00       0.000000e+00      -3.542882e-03 
       2.000000e+00       5.000000e-03       0.000000e+00 
       2.003528e+00       0.000000e+00       3.542882e-03 
       2.000000e+00      -5.000000e-03       0.000000e+00 
       1.497505e+00      -3.535534e-03       4.954187e-01 
       1.497505e+00       3.535534e-03       4.954187e-01 
       1.502495e+00       3.535534e-03       5.004291e-01 
       1.502495e+00      -3.535534e-03       5.004291e-01 

CELLS 2 42
20 0 1 2 3 4 5 6 7 8 9 10 11 12 13 14 15 16 17 18 19 
20 20 21 22 23 24 25 26 27 28 29 30 31 32 33 34 35 36 37 38 39 

CELL_TYPES 2
 25
 25

POINT_DATA        40 
VECTORS Displacements float
      -5.20655508e-06       0.00000000e+00      -5.19573430e-06 
      -5.20655508e-06       0.00000000e+00      -5.19573430e-06 
       5.20655508e-06       0.00000000e+00       5.19573430e-06 
       5.20655508e-06       0.00000000e+00       5.19573430e-06 
      -5.20655508e-06       0.00000000e+00      -4.15748182e-03 
      -5.20655508e-06       0.00000000e+00      -4.15748182e-03 
       5.20655508e-06       0.00000000e+00      -4.14709035e-03 
       5.20655508e-06       0.00000000e+00      -4.14709035e-03 
      -7.36318080e-06       0.00000000e+00      -7.34787792e-06 
       0.00000000e+00       0.00000000e+00       0.00000000e+00 
       7.36318080e-06       0.00000000e+00       7.34787792e-06 
       0.00000000e+00       0.00000000e+00       0.00000000e+00 
      -7.36318080e-06       0.00000000e+00      -4.15963396e-03 
       0.00000000e+00       0.00000000e+00      -4.15228608e-03 
       7.36318080e-06       0.00000000e+00      -4.14493820e-03 
       0.00000000e+00       0.00000000e+00      -4.15228608e-03 
      -5.20655508e-06       0.00000000e+00      -2.08133878e-03 
      -5.20655508e-06       0.00000000e+00      -2.08133878e-03 
       5.20655508e-06       0.00000000e+00      -2.07094731e-03 
       5.20655508e-06       0.00000000e+00      -2.07094731e-03 
       5.20655508e-06       0.00000000e+00      -4.15748182e-03 
       5.20655508e-06       0.00000000e+00      -4.15748182e-03 
      -5.20655508e-06       0.00000000e+00      -4.14709035e-03 
      -5.20655508e-06       0.00000000e+00      -4.14709035e-03 
       5.20655508e-06       0.00000000e+00      -5.19573430e-06 
       5.20655508e-06       0.00000000e+00      -5.19573430e-06 
      -5.20655508e-06       0.00000000e+00       5.19573430e-06 
      -5.20655508e-06       0.00000000e+00       5.19573430e-06 
       7.36318080e-06       0.00000000e+00      -4.15963396e-03 
       0.00000000e+00       0.00000000e+00      -4.15228608e-03 
      -7.36318080e-06       0.00000000e+00      -4.14493820e-03 
       0.00000000e+00       0.00000000e+00      -4.15228608e-03 
       7.36318080e-06       0.00000000e+00      -7.34787792e-06 
       0.00000000e+00       0.00000000e+00       0.00000000e+00 
      -7.36318080e-06       0.00000000e+00       7.34787792e-06 
       0.00000000e+00       0.00000000e+00       0.00000000e+00 
       5.20655508e-06       0.00000000e+00      -2.08133878e-03 
       5.20655508e-06       0.00000000e+00      -2.08133878e-03 
      -5.20655508e-06       0.00000000e+00      -2.07094731e-03 
      -5.20655508e-06       0.00000000e+00      -2.07094731e-03 

