# vtk DataFile Version 2.0
./output/static_plastic_von_mises_truss/static_plastic_von_mises_truss_0121.vtk
ASCII
DATASET UNSTRUCTURED_GRID

POINTS 40 float
       2.500507e-03      -3.535534e-03      -2.499493e-03 
       2.500507e-03       3.535534e-03      -2.499493e-03 
      -2.500507e-03       3.535534e-03       2.499493e-03 
      -2.500507e-03      -3.535534e-03       2.499493e-03 
       1.002501e+00      -3.535534e-03       9.979060e-01 
       1.002501e+00       3.535534e-03       9.979060e-01 
       9.974995e-01       3.535534e-03       1.002905e+00 
       9.974995e-01      -3.535534e-03       1.002905e+00 
       3.536250e-03       0.000000e+00      -3.534817e-03 
       0.000000e+00       5.000000e-03       0.000000e+00 
      -3.536250e-03       0.000000e+00       3.534817e-03 
       0.000000e+00      -5.000000e-03       0.000000e+00 
       1.003536e+00       0.000000e+00       9.968707e-01 
       1.000000e+00       5.000000e-03       1.000405e+00 
       9.964637e-01       0.000000e+00       1.003940e+00 
       1.000000e+00      -5.000000e-03       1.000405e+00 
       5.025005e-01      -3.535534e-03       4.977032e-01 
       5.025005e-01       3.535534e-03       4.977032e-01 
       4.974995e-01       3.535534e-03       5.027022e-01 
       4.974995e-01      -3.535534e-03       5.027022e-01 
       9.974995e-01      -3.535534e-03       9.979060e-01 
       9.974995e-01       3.535534e-03       9.979060e-01 
       1.002501e+00       3.535534e-03       1.002905e+00 
       1.002501e+00      -3.535534e-03       1.002905e+00 
       1.997499e+00      -3.535534e-03      -2.499493e-03 
       1.997499e+00       3.535534e-03      -2.499493e-03 
       2.002501e+00       3.535534e-03       2.499493e-03 
       2.002501e+00      -3.535534e-03       2.499493e-03 
       9.964637e-01       0.000000e+00       9.968707e-01 
       1.000000e+00       5.000000e-03       1.000405e+00 
       1.003536e+00       0.000000e+00       1.003940e+00 
       1.000000e+00      -5.000000e-03       1.000405e+00 
       1.996464e+00       0.000000e+00      -3.534817e-03 
       2.000000e+00       5.000000e-03       0.000000e+00 
       2.003536e+00       0.000000e+00       3.534817e-03 
       2.000000e+00      -5.000000e-03       0.000000e+00 
       1.497499e+00      -3.535534e-03       4.977032e-01 
       1.497499e+00       3.535534e-03       4.977032e-01 
       1.502501e+00       3.535534e-03       5.027022e-01 
       1.502501e+00      -3.535534e-03       5.027022e-01 

CELLS 2 42
20 0 1 2 3 4 5 6 7 8 9 10 11 12 13 14 15 16 17 18 19 
20 20 21 22 23 24 25 26 27 28 29 30 31 32 33 34 35 36 37 38 39 

CELL_TYPES 2
 25
 25

POINT_DATA        40 
VECTORS Displacements float
       5.06698874e-07       0.00000000e+00       5.06801593e-07 
       5.06698874e-07       0.00000000e+00       5.06801593e-07 
      -5.06698874e-07       0.00000000e+00      -5.06801593e-07 
      -5.06698874e-07       0.00000000e+00      -5.06801593e-07 
       5.06698874e-07       0.00000000e+00       4.05989188e-04 
       5.06698874e-07       0.00000000e+00       4.05989188e-04 
      -5.06698874e-07       0.00000000e+00       4.04975585e-04 
      -5.06698874e-07       0.00000000e+00       4.04975585e-04 
       7.16580420e-07       0.00000000e+00       7.16725686e-07 
       0.00000000e+00       0.00000000e+00       0.00000000e+00 
      -7.16580420e-07       0.00000000e+00      -7.16725686e-07 
       0.00000000e+00       0.00000000e+00       0.00000000e+00 
       7.16580420e-07       0.00000000e+00       4.06199112e-04 
       0.00000000e+00       0.00000000e+00       4.05482386e-04 
      -7.16580420e-07       0.00000000e+00       4.04765661e-04 
       0.00000000e+00       0.00000000e+00       4.05482386e-04 
       5.06698874e-07       0.00000000e+00       2.03247995e-04 
       5.06698874e-07       0.00000000e+00       2.03247995e-04 
      -5.06698874e-07       0.00000000e+00       2.02234392e-04 
      -5.06698874e-07       0.00000000e+00       2.02234392e-04 
      -5.06698874e-07       0.00000000e+00       4.05989188e-04 
      -5.06698874e-07       0.00000000e+00       4.05989188e-04 
       5.06698874e-07       0.00000000e+00       4.04975585e-04 
       5.06698874e-07       0.00000000e+00       4.04975585e-04 
      -5.06698874e-07       0.00000000e+00       5.06801592e-07 
      -5.06698874e-07       0.00000000e+00       5.06801592e-07 
       5.06698874e-07       0.00000000e+00      -5.06801593e-07 
       5.06698874e-07       0.00000000e+00      -5.06801593e-07 
      -7.16580420e-07       0.00000000e+00       4.06199112e-04 
       0.00000000e+00       0.00000000e+00       4.05482386e-04 
       7.16580420e-07       0.00000000e+00       4.04765661e-04 
       0.00000000e+00       0.00000000e+00       4.05482386e-04 
      -7.16580420e-07       0.00000000e+00       7.16725685e-07 
       0.00000000e+00       0.00000000e+00       0.00000000e+00 
       7.16580420e-07       0.00000000e+00      -7.16725686e-07 
       0.00000000e+00       0.00000000e+00       0.00000000e+00 
      -5.06698874e-07       0.00000000e+00       2.03247995e-04 
      -5.06698874e-07       0.00000000e+00       2.03247995e-04 
       5.06698874e-07       0.00000000e+00       2.02234392e-04 
       5.06698874e-07       0.00000000e+00       2.02234392e-04 

