# vtk DataFile Version 2.0
./output/static_plastic_von_mises_truss/static_plastic_von_mises_truss_0220.vtk
ASCII
DATASET UNSTRUCTURED_GRID

POINTS 40 float
       2.505615e-03      -3.535534e-03      -2.494372e-03 
       2.505615e-03       3.535534e-03      -2.494372e-03 
      -2.505615e-03       3.535534e-03       2.494372e-03 
      -2.505615e-03      -3.535534e-03       2.494372e-03 
       1.002506e+00      -3.535534e-03       1.002013e+00 
       1.002506e+00       3.535534e-03       1.002013e+00 
       9.974944e-01       3.535534e-03       1.007002e+00 
       9.974944e-01      -3.535534e-03       1.007002e+00 
       3.543475e-03       0.000000e+00      -3.527575e-03 
       0.000000e+00       5.000000e-03       0.000000e+00 
      -3.543475e-03       0.000000e+00       3.527575e-03 
       0.000000e+00      -5.000000e-03       0.000000e+00 
       1.003543e+00       0.000000e+00       1.000980e+00 
       1.000000e+00       5.000000e-03       1.004507e+00 
       9.964565e-01       0.000000e+00       1.008035e+00 
       1.000000e+00      -5.000000e-03       1.004507e+00 
       5.025056e-01      -3.535534e-03       4.997594e-01 
       5.025056e-01       3.535534e-03       4.997594e-01 
       4.974944e-01       3.535534e-03       5.047481e-01 
       4.974944e-01      -3.535534e-03       5.047481e-01 
       9.974944e-01      -3.535534e-03       1.002013e+00 
       9.974944e-01       3.535534e-03       1.002013e+00 
       1.002506e+00       3.535534e-03       1.007002e+00 
       1.002506e+00      -3.535534e-03       1.007002e+00 
       1.997494e+00      -3.535534e-03      -2.494372e-03 
       1.997494e+00       3.535534e-03      -2.494372e-03 
       2.002506e+00       3.535534e-03       2.494372e-03 
       2.002506e+00      -3.535534e-03       2.494372e-03 
       9.964565e-01       0.000000e+00       1.000980e+00 
       1.000000e+00       5.000000e-03       1.004507e+00 
       1.003543e+00       0.000000e+00       1.008035e+00 
       1.000000e+00      -5.000000e-03       1.004507e+00 
       1.996457e+00       0.000000e+00      -3.527575e-03 
       2.000000e+00       5.000000e-03       0.000000e+00 
       2.003543e+00       0.000000e+00       3.527575e-03 
       2.000000e+00      -5.000000e-03       0.000000e+00 
       1.497494e+00      -3.535534e-03       4.997594e-01 
       1.497494e+00       3.535534e-03       4.997594e-01 
       1.502506e+00       3.535534e-03       5.047481e-01 
       1.502506e+00      -3.535534e-03       5.047481e-01 

CELLS 2 42
20 0 1 2 3 4 5 6 7 8 9 10 11 12 13 14 15 16 17 18 19 
20 20 21 22 23 24 25 26 27 28 29 30 31 32 33 34 35 36 37 38 39 

CELL_TYPES 2
 25
 25

POINT_DATA        40 
VECTORS Displacements float
       5.61533062e-06      -8.67361738e-19       5.62797182e-06 
       5.61533062e-06       8.67361738e-19       5.62797182e-06 
      -5.61533062e-06       8.67361738e-19      -5.62797182e-06 
      -5.61533062e-06      -8.67361738e-19      -5.62797182e-06 
       5.61533062e-06      -8.67361738e-19       4.51309611e-03 
       5.61533062e-06       8.67361738e-19       4.51309611e-03 
      -5.61533062e-06       8.67361738e-19       4.50184016e-03 
      -5.61533062e-06      -8.67361738e-19       4.50184016e-03 
       7.94127672e-06       0.00000000e+00       7.95915407e-06 
       0.00000000e+00       8.67361738e-19       0.00000000e+00 
      -7.94127672e-06       0.00000000e+00      -7.95915407e-06 
       0.00000000e+00      -8.67361738e-19       0.00000000e+00 
       7.94127672e-06       0.00000000e+00       4.51542729e-03 
       0.00000000e+00       8.67361738e-19       4.50746814e-03 
      -7.94127672e-06       0.00000000e+00       4.49950898e-03 
       0.00000000e+00      -8.67361738e-19       4.50746814e-03 
       5.61533062e-06      -8.67361738e-19       2.25936204e-03 
       5.61533062e-06       8.67361738e-19       2.25936204e-03 
      -5.61533062e-06       8.67361738e-19       2.24810610e-03 
      -5.61533062e-06      -8.67361738e-19       2.24810610e-03 
      -5.61533062e-06      -8.67361738e-19       4.51309611e-03 
      -5.61533062e-06       8.67361738e-19       4.51309611e-03 
       5.61533062e-06       8.67361738e-19       4.50184016e-03 
       5.61533062e-06      -8.67361738e-19       4.50184016e-03 
      -5.61533062e-06      -8.67361738e-19       5.62797182e-06 
      -5.61533062e-06       8.67361738e-19       5.62797182e-06 
       5.61533062e-06       8.67361738e-19      -5.62797182e-06 
       5.61533062e-06      -8.67361738e-19      -5.62797182e-06 
      -7.94127672e-06       0.00000000e+00       4.51542729e-03 
       0.00000000e+00       8.67361738e-19       4.50746814e-03 
       7.94127672e-06       0.00000000e+00       4.49950898e-03 
       0.00000000e+00      -8.67361738e-19       4.50746814e-03 
      -7.94127672e-06       0.00000000e+00       7.95915407e-06 
       0.00000000e+00       8.67361738e-19       0.00000000e+00 
       7.94127672e-06       0.00000000e+00      -7.95915407e-06 
       0.00000000e+00      -8.67361738e-19       0.00000000e+00 
      -5.61533062e-06      -8.67361738e-19       2.25936204e-03 
      -5.61533062e-06       8.67361738e-19       2.25936204e-03 
       5.61533062e-06       8.67361738e-19       2.24810610e-03 
       5.61533062e-06      -8.67361738e-19       2.24810610e-03 

