# vtk DataFile Version 2.0
./output/static_plastic_von_mises_truss/static_plastic_von_mises_truss_0216.vtk
ASCII
DATASET UNSTRUCTURED_GRID

POINTS 40 float
       2.505966e-03      -3.535534e-03      -2.494020e-03 
       2.505966e-03       3.535534e-03      -2.494020e-03 
      -2.505966e-03       3.535534e-03       2.494020e-03 
      -2.505966e-03      -3.535534e-03       2.494020e-03 
       1.002506e+00      -3.535534e-03       1.002296e+00 
       1.002506e+00       3.535534e-03       1.002296e+00 
       9.974940e-01       3.535534e-03       1.007284e+00 
       9.974940e-01      -3.535534e-03       1.007284e+00 
       3.543971e-03       0.000000e+00      -3.527076e-03 
       0.000000e+00       5.000000e-03       0.000000e+00 
      -3.543971e-03       0.000000e+00       3.527076e-03 
       0.000000e+00      -5.000000e-03       0.000000e+00 
       1.003544e+00       0.000000e+00       1.001263e+00 
       1.000000e+00       5.000000e-03       1.004790e+00 
       9.964560e-01       0.000000e+00       1.008317e+00 
       1.000000e+00      -5.000000e-03       1.004790e+00 
       5.025060e-01      -3.535534e-03       4.999010e-01 
       5.025060e-01       3.535534e-03       4.999010e-01 
       4.974940e-01       3.535534e-03       5.048891e-01 
       4.974940e-01      -3.535534e-03       5.048891e-01 
       9.974940e-01      -3.535534e-03       1.002296e+00 
       9.974940e-01       3.535534e-03       1.002296e+00 
       1.002506e+00       3.535534e-03       1.007284e+00 
       1.002506e+00      -3.535534e-03       1.007284e+00 
       1.997494e+00      -3.535534e-03      -2.494020e-03 
       1.997494e+00       3.535534e-03      -2.494020e-03 
       2.002506e+00       3.535534e-03       2.494020e-03 
       2.002506e+00      -3.535534e-03       2.494020e-03 
       9.964560e-01       0.000000e+00       1.001263e+00 
       1.000000e+00       5.000000e-03       1.004790e+00 
       1.003544e+00       0.000000e+00       1.008317e+00 
       1.000000e+00      -5.000000e-03       1.004790e+00 
       1.996456e+00       0.000000e+00      -3.527076e-03 
       2.000000e+00       5.000000e-03       0.000000e+00 
       2.003544e+00       0.000000e+00       3.527076e-03 
       2.000000e+00      -5.000000e-03       0.000000e+00 
       1.497494e+00      -3.535534e-03       4.999010e-01 
       1.497494e+00       3.535534e-03       4.999010e-01 
       1.502506e+00       3.535534e-03       5.048891e-01 
       1.502506e+00      -3.535534e-03       5.048891e-01 

CELLS 2 42
20 0 1 2 3 4 5 6 7 8 9 10 11 12 13 14 15 16 17 18 19 
20 20 21 22 23 24 25 26 27 28 29 30 31 32 33 34 35 36 37 38 39 

CELL_TYPES 2
 25
 25

POINT_DATA        40 
VECTORS Displacements float
       5.96612871e-06       0.00000000e+00       5.98040069e-06 
       5.96612871e-06       0.00000000e+00       5.98040069e-06 
      -5.96612871e-06       0.00000000e+00      -5.98040069e-06 
      -5.96612871e-06       0.00000000e+00      -5.98040069e-06 
       5.96612871e-06       0.00000000e+00       4.79605078e-03 
       5.96612871e-06       0.00000000e+00       4.79605078e-03 
      -5.96612871e-06       0.00000000e+00       4.78408998e-03 
      -5.96612871e-06       0.00000000e+00       4.78408998e-03 
       8.43738014e-06       0.00000000e+00       8.45756376e-06 
       0.00000000e+00       0.00000000e+00       0.00000000e+00 
      -8.43738014e-06       0.00000000e+00      -8.45756376e-06 
       0.00000000e+00       0.00000000e+00       0.00000000e+00 
       8.43738014e-06       0.00000000e+00       4.79852794e-03 
       0.00000000e+00       0.00000000e+00       4.79007038e-03 
      -8.43738014e-06       0.00000000e+00       4.78161281e-03 
       0.00000000e+00       0.00000000e+00       4.79007038e-03 
       5.96612871e-06       0.00000000e+00       2.40101559e-03 
       5.96612871e-06       0.00000000e+00       2.40101559e-03 
      -5.96612871e-06       0.00000000e+00       2.38905479e-03 
      -5.96612871e-06       0.00000000e+00       2.38905479e-03 
      -5.96612871e-06       0.00000000e+00       4.79605078e-03 
      -5.96612871e-06       0.00000000e+00       4.79605078e-03 
       5.96612871e-06       0.00000000e+00       4.78408998e-03 
       5.96612871e-06       0.00000000e+00       4.78408998e-03 
      -5.96612871e-06       0.00000000e+00       5.98040069e-06 
      -5.96612871e-06       0.00000000e+00       5.98040069e-06 
       5.96612871e-06       0.00000000e+00      -5.98040069e-06 
       5.96612871e-06       0.00000000e+00      -5.98040069e-06 
      -8.43738014e-06       0.00000000e+00       4.79852794e-03 
       0.00000000e+00       0.00000000e+00       4.79007038e-03 
       8.43738014e-06       0.00000000e+00       4.78161281e-03 
       0.00000000e+00       0.00000000e+00       4.79007038e-03 
      -8.43738014e-06       0.00000000e+00       8.45756376e-06 
       0.00000000e+00       0.00000000e+00       0.00000000e+00 
       8.43738014e-06       0.00000000e+00      -8.45756376e-06 
       0.00000000e+00       0.00000000e+00       0.00000000e+00 
      -5.96612871e-06       0.00000000e+00       2.40101559e-03 
      -5.96612871e-06       0.00000000e+00       2.40101559e-03 
       5.96612871e-06       0.00000000e+00       2.38905479e-03 
       5.96612871e-06       0.00000000e+00       2.38905479e-03 

