# vtk DataFile Version 2.0
./output/static_plastic_von_mises_truss/static_plastic_von_mises_truss_0048.vtk
ASCII
DATASET UNSTRUCTURED_GRID

POINTS 40 float
       2.502053e-03      -3.535534e-03      -2.497946e-03 
       2.502053e-03       3.535534e-03      -2.497946e-03 
      -2.502053e-03       3.535534e-03       2.497946e-03 
      -2.502053e-03      -3.535534e-03       2.497946e-03 
       1.002502e+00      -3.535534e-03       9.991463e-01 
       1.002502e+00       3.535534e-03       9.991463e-01 
       9.974979e-01       3.535534e-03       1.004142e+00 
       9.974979e-01      -3.535534e-03       1.004142e+00 
       3.538437e-03       0.000000e+00      -3.532628e-03 
       0.000000e+00       5.000000e-03       0.000000e+00 
      -3.538437e-03       0.000000e+00       3.532628e-03 
       0.000000e+00      -5.000000e-03       0.000000e+00 
       1.003538e+00       0.000000e+00       9.981116e-01 
       1.000000e+00       5.000000e-03       1.001644e+00 
       9.964616e-01       0.000000e+00       1.005177e+00 
       1.000000e+00      -5.000000e-03       1.001644e+00 
       5.025021e-01      -3.535534e-03       4.983242e-01 
       5.025021e-01       3.535534e-03       4.983242e-01 
       4.974979e-01       3.535534e-03       5.033201e-01 
       4.974979e-01      -3.535534e-03       5.033201e-01 
       9.974979e-01      -3.535534e-03       9.991463e-01 
       9.974979e-01       3.535534e-03       9.991463e-01 
       1.002502e+00       3.535534e-03       1.004142e+00 
       1.002502e+00      -3.535534e-03       1.004142e+00 
       1.997498e+00      -3.535534e-03      -2.497946e-03 
       1.997498e+00       3.535534e-03      -2.497946e-03 
       2.002502e+00       3.535534e-03       2.497946e-03 
       2.002502e+00      -3.535534e-03       2.497946e-03 
       9.964616e-01       0.000000e+00       9.981116e-01 
       1.000000e+00       5.000000e-03       1.001644e+00 
       1.003538e+00       0.000000e+00       1.005177e+00 
       1.000000e+00      -5.000000e-03       1.001644e+00 
       1.996462e+00       0.000000e+00      -3.532628e-03 
       2.000000e+00       5.000000e-03       0.000000e+00 
       2.003538e+00       0.000000e+00       3.532628e-03 
       2.000000e+00      -5.000000e-03       0.000000e+00 
       1.497498e+00      -3.535534e-03       4.983242e-01 
       1.497498e+00       3.535534e-03       4.983242e-01 
       1.502502e+00       3.535534e-03       5.033201e-01 
       1.502502e+00      -3.535534e-03       5.033201e-01 

CELLS 2 42
20 0 1 2 3 4 5 6 7 8 9 10 11 12 13 14 15 16 17 18 19 
20 20 21 22 23 24 25 26 27 28 29 30 31 32 33 34 35 36 37 38 39 

CELL_TYPES 2
 25
 25

POINT_DATA        40 
VECTORS Displacements float
       2.05280076e-06      -8.67361738e-19       2.05448774e-06 
       2.05280076e-06       8.67361738e-19       2.05448774e-06 
      -2.05280076e-06       8.67361738e-19      -2.05448774e-06 
      -2.05280076e-06      -8.67361738e-19      -2.05448774e-06 
       2.05280076e-06      -8.67361738e-19       1.64632114e-03 
       2.05280076e-06       8.67361738e-19       1.64632114e-03 
      -2.05280076e-06       8.67361738e-19       1.64221216e-03 
      -2.05280076e-06      -8.67361738e-19       1.64221216e-03 
       2.90309867e-06       0.00000000e+00       2.90548443e-06 
       0.00000000e+00       8.67361738e-19       0.00000000e+00 
      -2.90309867e-06       0.00000000e+00      -2.90548443e-06 
       0.00000000e+00      -8.67361738e-19       0.00000000e+00 
       2.90309867e-06       0.00000000e+00       1.64717213e-03 
      -1.11022302e-16       8.67361738e-19       1.64426665e-03 
      -2.90309867e-06       0.00000000e+00       1.64136116e-03 
      -1.11022302e-16      -8.67361738e-19       1.64426665e-03 
       2.05280076e-06      -8.67361738e-19       8.24187812e-04 
       2.05280076e-06       8.67361738e-19       8.24187812e-04 
      -2.05280076e-06       8.67361738e-19       8.20078837e-04 
      -2.05280076e-06      -8.67361738e-19       8.20078837e-04 
      -2.05280076e-06      -8.67361738e-19       1.64632114e-03 
      -2.05280076e-06       8.67361738e-19       1.64632114e-03 
       2.05280076e-06       8.67361738e-19       1.64221216e-03 
       2.05280076e-06      -8.67361738e-19       1.64221216e-03 
      -2.05280076e-06      -8.67361738e-19       2.05448774e-06 
      -2.05280076e-06       8.67361738e-19       2.05448774e-06 
       2.05280076e-06       8.67361738e-19      -2.05448774e-06 
       2.05280076e-06      -8.67361738e-19      -2.05448774e-06 
      -2.90309867e-06       0.00000000e+00       1.64717213e-03 
       0.00000000e+00       8.67361738e-19       1.64426665e-03 
       2.90309867e-06       0.00000000e+00       1.64136116e-03 
       0.00000000e+00      -8.67361738e-19       1.64426665e-03 
      -2.90309867e-06       0.00000000e+00       2.90548443e-06 
       0.00000000e+00       8.67361738e-19       0.00000000e+00 
       2.90309867e-06       0.00000000e+00      -2.90548443e-06 
       0.00000000e+00      -8.67361738e-19       0.00000000e+00 
      -2.05280076e-06      -8.67361738e-19       8.24187812e-04 
      -2.05280076e-06       8.67361738e-19       8.24187812e-04 
       2.05280076e-06       8.67361738e-19       8.20078837e-04 
       2.05280076e-06      -8.67361738e-19       8.20078837e-04 

