# vtk DataFile Version 2.0
./output/static_plastic_von_mises_truss/static_plastic_von_mises_truss_0189.vtk
ASCII
DATASET UNSTRUCTURED_GRID

POINTS 40 float
       2.498680e-03      -3.535534e-03      -2.501319e-03 
       2.498680e-03       3.535534e-03      -2.501319e-03 
      -2.498680e-03       3.535534e-03       2.501319e-03 
      -2.498680e-03      -3.535534e-03       2.501319e-03 
       1.002499e+00      -3.535534e-03       9.964436e-01 
       1.002499e+00       3.535534e-03       9.964436e-01 
       9.975013e-01       3.535534e-03       1.001446e+00 
       9.975013e-01      -3.535534e-03       1.001446e+00 
       3.533667e-03       0.000000e+00      -3.537400e-03 
       0.000000e+00       5.000000e-03       0.000000e+00 
      -3.533667e-03       0.000000e+00       3.537400e-03 
       0.000000e+00      -5.000000e-03       0.000000e+00 
       1.003534e+00       0.000000e+00       9.954075e-01 
       1.000000e+00       5.000000e-03       9.989449e-01 
       9.964663e-01       0.000000e+00       1.002482e+00 
       1.000000e+00      -5.000000e-03       9.989449e-01 
       5.024987e-01      -3.535534e-03       4.969711e-01 
       5.024987e-01       3.535534e-03       4.969711e-01 
       4.975013e-01       3.535534e-03       5.019738e-01 
       4.975013e-01      -3.535534e-03       5.019738e-01 
       9.975013e-01      -3.535534e-03       9.964436e-01 
       9.975013e-01       3.535534e-03       9.964436e-01 
       1.002499e+00       3.535534e-03       1.001446e+00 
       1.002499e+00      -3.535534e-03       1.001446e+00 
       1.997501e+00      -3.535534e-03      -2.501319e-03 
       1.997501e+00       3.535534e-03      -2.501319e-03 
       2.002499e+00       3.535534e-03       2.501319e-03 
       2.002499e+00      -3.535534e-03       2.501319e-03 
       9.964663e-01       0.000000e+00       9.954075e-01 
       1.000000e+00       5.000000e-03       9.989449e-01 
       1.003534e+00       0.000000e+00       1.002482e+00 
       1.000000e+00      -5.000000e-03       9.989449e-01 
       1.996466e+00       0.000000e+00      -3.537400e-03 
       2.000000e+00       5.000000e-03       0.000000e+00 
       2.003534e+00       0.000000e+00       3.537400e-03 
       2.000000e+00      -5.000000e-03       0.000000e+00 
       1.497501e+00      -3.535534e-03       4.969711e-01 
       1.497501e+00       3.535534e-03       4.969711e-01 
       1.502499e+00       3.535534e-03       5.019738e-01 
       1.502499e+00      -3.535534e-03       5.019738e-01 

CELLS 2 42
20 0 1 2 3 4 5 6 7 8 9 10 11 12 13 14 15 16 17 18 19 
20 20 21 22 23 24 25 26 27 28 29 30 31 32 33 34 35 36 37 38 39 

CELL_TYPES 2
 25
 25

POINT_DATA        40 
VECTORS Displacements float
      -1.31993149e-06       4.33680869e-19      -1.31923497e-06 
      -1.31993149e-06      -4.33680869e-19      -1.31923497e-06 
       1.31993149e-06      -4.33680869e-19       1.31923497e-06 
       1.31993149e-06       4.33680869e-19       1.31923497e-06 
      -1.31993149e-06       4.33680869e-19      -1.05642904e-03 
      -1.31993149e-06      -4.33680869e-19      -1.05642904e-03 
       1.31993149e-06      -4.33680869e-19      -1.05379057e-03 
       1.31993149e-06       4.33680869e-19      -1.05379057e-03 
      -1.86666502e-06       0.00000000e+00      -1.86567999e-06 
       0.00000000e+00      -8.67361738e-19       0.00000000e+00 
       1.86666502e-06       0.00000000e+00       1.86567999e-06 
       0.00000000e+00       8.67361738e-19       0.00000000e+00 
      -1.86666502e-06       0.00000000e+00      -1.05697549e-03 
       0.00000000e+00      -8.67361738e-19      -1.05510981e-03 
       1.86666502e-06       0.00000000e+00      -1.05324413e-03 
       0.00000000e+00       8.67361738e-19      -1.05510981e-03 
      -1.31993149e-06       4.33680869e-19      -5.28874140e-04 
      -1.31993149e-06      -4.33680869e-19      -5.28874140e-04 
       1.31993149e-06      -4.33680869e-19      -5.26235670e-04 
       1.31993149e-06       4.33680869e-19      -5.26235670e-04 
       1.31993149e-06       4.33680869e-19      -1.05642904e-03 
       1.31993149e-06      -4.33680869e-19      -1.05642904e-03 
      -1.31993149e-06      -4.33680869e-19      -1.05379057e-03 
      -1.31993149e-06       4.33680869e-19      -1.05379057e-03 
       1.31993149e-06       4.33680869e-19      -1.31923497e-06 
       1.31993149e-06      -4.33680869e-19      -1.31923497e-06 
      -1.31993149e-06      -4.33680869e-19       1.31923497e-06 
      -1.31993149e-06       4.33680869e-19       1.31923497e-06 
       1.86666502e-06       0.00000000e+00      -1.05697549e-03 
       0.00000000e+00      -8.67361738e-19      -1.05510981e-03 
      -1.86666502e-06       0.00000000e+00      -1.05324413e-03 
       0.00000000e+00       8.67361738e-19      -1.05510981e-03 
       1.86666502e-06       0.00000000e+00      -1.86567999e-06 
       0.00000000e+00      -8.67361738e-19       0.00000000e+00 
      -1.86666502e-06       0.00000000e+00       1.86567999e-06 
       0.00000000e+00       8.67361738e-19       0.00000000e+00 
       1.31993149e-06       4.33680869e-19      -5.28874140e-04 
       1.31993149e-06      -4.33680869e-19      -5.28874140e-04 
      -1.31993149e-06      -4.33680869e-19      -5.26235670e-04 
      -1.31993149e-06       4.33680869e-19      -5.26235670e-04 

