# vtk DataFile Version 2.0
./output/static_plastic_von_mises_truss/static_plastic_von_mises_truss_0056.vtk
ASCII
DATASET UNSTRUCTURED_GRID

POINTS 40 float
       2.502394e-03      -3.535534e-03      -2.497604e-03 
       2.502394e-03       3.535534e-03      -2.497604e-03 
      -2.502394e-03       3.535534e-03       2.497604e-03 
      -2.502394e-03      -3.535534e-03       2.497604e-03 
       1.002502e+00      -3.535534e-03       9.994203e-01 
       1.002502e+00       3.535534e-03       9.994203e-01 
       9.974976e-01       3.535534e-03       1.004416e+00 
       9.974976e-01      -3.535534e-03       1.004416e+00 
       3.538919e-03       0.000000e+00      -3.532145e-03 
       0.000000e+00       5.000000e-03       0.000000e+00 
      -3.538919e-03       0.000000e+00       3.532145e-03 
       0.000000e+00      -5.000000e-03       0.000000e+00 
       1.003539e+00       0.000000e+00       9.983858e-01 
       1.000000e+00       5.000000e-03       1.001918e+00 
       9.964611e-01       0.000000e+00       1.005450e+00 
       1.000000e+00      -5.000000e-03       1.001918e+00 
       5.025024e-01      -3.535534e-03       4.984614e-01 
       5.025024e-01       3.535534e-03       4.984614e-01 
       4.974976e-01       3.535534e-03       5.034566e-01 
       4.974976e-01      -3.535534e-03       5.034566e-01 
       9.974976e-01      -3.535534e-03       9.994203e-01 
       9.974976e-01       3.535534e-03       9.994203e-01 
       1.002502e+00       3.535534e-03       1.004416e+00 
       1.002502e+00      -3.535534e-03       1.004416e+00 
       1.997498e+00      -3.535534e-03      -2.497604e-03 
       1.997498e+00       3.535534e-03      -2.497604e-03 
       2.002502e+00       3.535534e-03       2.497604e-03 
       2.002502e+00      -3.535534e-03       2.497604e-03 
       9.964611e-01       0.000000e+00       9.983858e-01 
       1.000000e+00       5.000000e-03       1.001918e+00 
       1.003539e+00       0.000000e+00       1.005450e+00 
       1.000000e+00      -5.000000e-03       1.001918e+00 
       1.996461e+00       0.000000e+00      -3.532145e-03 
       2.000000e+00       5.000000e-03       0.000000e+00 
       2.003539e+00       0.000000e+00       3.532145e-03 
       2.000000e+00      -5.000000e-03       0.000000e+00 
       1.497498e+00      -3.535534e-03       4.984614e-01 
       1.497498e+00       3.535534e-03       4.984614e-01 
       1.502502e+00       3.535534e-03       5.034566e-01 
       1.502502e+00      -3.535534e-03       5.034566e-01 

CELLS 2 42
20 0 1 2 3 4 5 6 7 8 9 10 11 12 13 14 15 16 17 18 19 
20 20 21 22 23 24 25 26 27 28 29 30 31 32 33 34 35 36 37 38 39 

CELL_TYPES 2
 25
 25

POINT_DATA        40 
VECTORS Displacements float
       2.39395310e-06       4.33680869e-19       2.39624770e-06 
       2.39395310e-06      -4.33680869e-19       2.39624770e-06 
      -2.39395310e-06      -4.33680869e-19      -2.39624770e-06 
      -2.39395310e-06       4.33680869e-19      -2.39624770e-06 
       2.39395310e-06       4.33680869e-19       1.92031489e-03 
       2.39395310e-06      -4.33680869e-19       1.92031489e-03 
      -2.39395310e-06      -4.33680869e-19       1.91552240e-03 
      -2.39395310e-06       4.33680869e-19       1.91552240e-03 
       3.38556094e-06       0.00000000e+00       3.38880600e-06 
       0.00000000e+00      -8.67361738e-19       0.00000000e+00 
      -3.38556094e-06       0.00000000e+00      -3.38880600e-06 
       0.00000000e+00       8.67361738e-19       0.00000000e+00 
       3.38556094e-06       0.00000000e+00       1.92130745e-03 
       0.00000000e+00      -8.67361738e-19       1.91791864e-03 
      -3.38556094e-06       0.00000000e+00       1.91452984e-03 
       0.00000000e+00       8.67361738e-19       1.91791864e-03 
       2.39395310e-06       4.33680869e-19       9.61355569e-04 
       2.39395310e-06      -4.33680869e-19       9.61355569e-04 
      -2.39395310e-06      -4.33680869e-19       9.56563074e-04 
      -2.39395310e-06       4.33680869e-19       9.56563074e-04 
      -2.39395310e-06       4.33680869e-19       1.92031489e-03 
      -2.39395310e-06      -4.33680869e-19       1.92031489e-03 
       2.39395310e-06      -4.33680869e-19       1.91552240e-03 
       2.39395310e-06       4.33680869e-19       1.91552240e-03 
      -2.39395310e-06       4.33680869e-19       2.39624770e-06 
      -2.39395310e-06      -4.33680869e-19       2.39624770e-06 
       2.39395310e-06      -4.33680869e-19      -2.39624770e-06 
       2.39395310e-06       4.33680869e-19      -2.39624770e-06 
      -3.38556094e-06       0.00000000e+00       1.92130745e-03 
       0.00000000e+00      -8.67361738e-19       1.91791864e-03 
       3.38556094e-06       0.00000000e+00       1.91452984e-03 
       0.00000000e+00       8.67361738e-19       1.91791864e-03 
      -3.38556094e-06       0.00000000e+00       3.38880600e-06 
       0.00000000e+00      -8.67361738e-19       0.00000000e+00 
       3.38556094e-06       0.00000000e+00      -3.38880600e-06 
       0.00000000e+00       8.67361738e-19       0.00000000e+00 
      -2.39395310e-06       4.33680869e-19       9.61355569e-04 
      -2.39395310e-06      -4.33680869e-19       9.61355569e-04 
       2.39395310e-06      -4.33680869e-19       9.56563074e-04 
       2.39395310e-06       4.33680869e-19       9.56563074e-04 

