# vtk DataFile Version 2.0
./output/static_plastic_von_mises_truss/static_plastic_von_mises_truss_0017.vtk
ASCII
DATASET UNSTRUCTURED_GRID

POINTS 40 float
       2.500728e-03      -3.535534e-03      -2.499272e-03 
       2.500728e-03       3.535534e-03      -2.499272e-03 
      -2.500728e-03       3.535534e-03       2.499272e-03 
      -2.500728e-03      -3.535534e-03       2.499272e-03 
       1.002501e+00      -3.535534e-03       9.980835e-01 
       1.002501e+00       3.535534e-03       9.980835e-01 
       9.974993e-01       3.535534e-03       1.003082e+00 
       9.974993e-01      -3.535534e-03       1.003082e+00 
       3.536564e-03       0.000000e+00      -3.534504e-03 
       0.000000e+00       5.000000e-03       0.000000e+00 
      -3.536564e-03       0.000000e+00       3.534504e-03 
       0.000000e+00      -5.000000e-03       0.000000e+00 
       1.003537e+00       0.000000e+00       9.970483e-01 
       1.000000e+00       5.000000e-03       1.000583e+00 
       9.964634e-01       0.000000e+00       1.004117e+00 
       1.000000e+00      -5.000000e-03       1.000583e+00 
       5.025007e-01      -3.535534e-03       4.977921e-01 
       5.025007e-01       3.535534e-03       4.977921e-01 
       4.974993e-01       3.535534e-03       5.027907e-01 
       4.974993e-01      -3.535534e-03       5.027907e-01 
       9.974993e-01      -3.535534e-03       9.980835e-01 
       9.974993e-01       3.535534e-03       9.980835e-01 
       1.002501e+00       3.535534e-03       1.003082e+00 
       1.002501e+00      -3.535534e-03       1.003082e+00 
       1.997499e+00      -3.535534e-03      -2.499272e-03 
       1.997499e+00       3.535534e-03      -2.499272e-03 
       2.002501e+00       3.535534e-03       2.499272e-03 
       2.002501e+00      -3.535534e-03       2.499272e-03 
       9.964634e-01       0.000000e+00       9.970483e-01 
       1.000000e+00       5.000000e-03       1.000583e+00 
       1.003537e+00       0.000000e+00       1.004117e+00 
       1.000000e+00      -5.000000e-03       1.000583e+00 
       1.996463e+00       0.000000e+00      -3.534504e-03 
       2.000000e+00       5.000000e-03       0.000000e+00 
       2.003537e+00       0.000000e+00       3.534504e-03 
       2.000000e+00      -5.000000e-03       0.000000e+00 
       1.497499e+00      -3.535534e-03       4.977921e-01 
       1.497499e+00       3.535534e-03       4.977921e-01 
       1.502501e+00       3.535534e-03       5.027907e-01 
       1.502501e+00      -3.535534e-03       5.027907e-01 

CELLS 2 42
20 0 1 2 3 4 5 6 7 8 9 10 11 12 13 14 15 16 17 18 19 
20 20 21 22 23 24 25 26 27 28 29 30 31 32 33 34 35 36 37 38 39 

CELL_TYPES 2
 25
 25

POINT_DATA        40 
VECTORS Displacements float
       7.28190809e-07       4.33680869e-19       7.28402975e-07 
       7.28190809e-07      -4.33680869e-19       7.28402975e-07 
      -7.28190809e-07      -4.33680869e-19      -7.28402975e-07 
      -7.28190809e-07       4.33680869e-19      -7.28402975e-07 
       7.28190809e-07       4.33680869e-19       5.83535724e-04 
       7.28190809e-07      -4.33680869e-19       5.83535724e-04 
      -7.28190809e-07      -4.33680869e-19       5.82078918e-04 
      -7.28190809e-07       4.33680869e-19       5.82078918e-04 
       1.02981732e-06       0.00000000e+00       1.03011737e-06 
       0.00000000e+00      -8.67361738e-19       0.00000000e+00 
      -1.02981732e-06       0.00000000e+00      -1.03011737e-06 
       0.00000000e+00       8.67361738e-19       0.00000000e+00 
       1.02981732e-06       0.00000000e+00       5.83837439e-04 
      -1.11022302e-16      -8.67361738e-19       5.82807321e-04 
      -1.02981732e-06       0.00000000e+00       5.81777204e-04 
      -1.11022302e-16       8.67361738e-19       5.82807321e-04 
       7.28190809e-07       4.33680869e-19       2.92132064e-04 
       7.28190809e-07      -4.33680869e-19       2.92132064e-04 
      -7.28190809e-07      -4.33680869e-19       2.90675258e-04 
      -7.28190809e-07       4.33680869e-19       2.90675258e-04 
      -7.28190809e-07       4.33680869e-19       5.83535724e-04 
      -7.28190809e-07      -4.33680869e-19       5.83535724e-04 
       7.28190809e-07      -4.33680869e-19       5.82078918e-04 
       7.28190809e-07       4.33680869e-19       5.82078918e-04 
      -7.28190809e-07       4.33680869e-19       7.28402975e-07 
      -7.28190809e-07      -4.33680869e-19       7.28402975e-07 
       7.28190809e-07      -4.33680869e-19      -7.28402975e-07 
       7.28190809e-07       4.33680869e-19      -7.28402975e-07 
      -1.02981732e-06       0.00000000e+00       5.83837439e-04 
       0.00000000e+00      -8.67361738e-19       5.82807321e-04 
       1.02981732e-06       0.00000000e+00       5.81777204e-04 
       0.00000000e+00       8.67361738e-19       5.82807321e-04 
      -1.02981732e-06       0.00000000e+00       1.03011737e-06 
       0.00000000e+00      -8.67361738e-19       0.00000000e+00 
       1.02981732e-06       0.00000000e+00      -1.03011737e-06 
       0.00000000e+00       8.67361738e-19       0.00000000e+00 
      -7.28190809e-07       4.33680869e-19       2.92132064e-04 
      -7.28190809e-07      -4.33680869e-19       2.92132064e-04 
       7.28190809e-07      -4.33680869e-19       2.90675258e-04 
       7.28190809e-07       4.33680869e-19       2.90675258e-04 

