# vtk DataFile Version 2.0
./output/static_plastic_von_mises_truss/static_plastic_von_mises_truss_0187.vtk
ASCII
DATASET UNSTRUCTURED_GRID

POINTS 40 float
       2.498504e-03      -3.535534e-03      -2.501495e-03 
       2.498504e-03       3.535534e-03      -2.501495e-03 
      -2.498504e-03       3.535534e-03       2.501495e-03 
      -2.498504e-03      -3.535534e-03       2.501495e-03 
       1.002499e+00      -3.535534e-03       9.963029e-01 
       1.002499e+00       3.535534e-03       9.963029e-01 
       9.975015e-01       3.535534e-03       1.001306e+00 
       9.975015e-01      -3.535534e-03       1.001306e+00 
       3.533419e-03       0.000000e+00      -3.537648e-03 
       0.000000e+00       5.000000e-03       0.000000e+00 
      -3.533419e-03       0.000000e+00       3.537648e-03 
       0.000000e+00      -5.000000e-03       0.000000e+00 
       1.003533e+00       0.000000e+00       9.952668e-01 
       1.000000e+00       5.000000e-03       9.988044e-01 
       9.964666e-01       0.000000e+00       1.002342e+00 
       1.000000e+00      -5.000000e-03       9.988044e-01 
       5.024985e-01      -3.535534e-03       4.969007e-01 
       5.024985e-01       3.535534e-03       4.969007e-01 
       4.975015e-01       3.535534e-03       5.019037e-01 
       4.975015e-01      -3.535534e-03       5.019037e-01 
       9.975015e-01      -3.535534e-03       9.963029e-01 
       9.975015e-01       3.535534e-03       9.963029e-01 
       1.002499e+00       3.535534e-03       1.001306e+00 
       1.002499e+00      -3.535534e-03       1.001306e+00 
       1.997501e+00      -3.535534e-03      -2.501495e-03 
       1.997501e+00       3.535534e-03      -2.501495e-03 
       2.002499e+00       3.535534e-03       2.501495e-03 
       2.002499e+00      -3.535534e-03       2.501495e-03 
       9.964666e-01       0.000000e+00       9.952668e-01 
       1.000000e+00       5.000000e-03       9.988044e-01 
       1.003533e+00       0.000000e+00       1.002342e+00 
       1.000000e+00      -5.000000e-03       9.988044e-01 
       1.996467e+00       0.000000e+00      -3.537648e-03 
       2.000000e+00       5.000000e-03       0.000000e+00 
       2.003533e+00       0.000000e+00       3.537648e-03 
       2.000000e+00      -5.000000e-03       0.000000e+00 
       1.497501e+00      -3.535534e-03       4.969007e-01 
       1.497501e+00       3.535534e-03       4.969007e-01 
       1.502499e+00       3.535534e-03       5.019037e-01 
       1.502499e+00      -3.535534e-03       5.019037e-01 

CELLS 2 42
20 0 1 2 3 4 5 6 7 8 9 10 11 12 13 14 15 16 17 18 19 
20 20 21 22 23 24 25 26 27 28 29 30 31 32 33 34 35 36 37 38 39 

CELL_TYPES 2
 25
 25

POINT_DATA        40 
VECTORS Displacements float
      -1.49581272e-06       0.00000000e+00      -1.49491827e-06 
      -1.49581272e-06       0.00000000e+00      -1.49491827e-06 
       1.49581272e-06       0.00000000e+00       1.49491827e-06 
       1.49581272e-06       0.00000000e+00       1.49491827e-06 
      -1.49581272e-06       0.00000000e+00      -1.19707240e-03 
      -1.49581272e-06       0.00000000e+00      -1.19707240e-03 
       1.49581272e-06       0.00000000e+00      -1.19408256e-03 
       1.49581272e-06       0.00000000e+00      -1.19408256e-03 
      -2.11539864e-06       0.00000000e+00      -2.11413370e-06 
       0.00000000e+00       0.00000000e+00       0.00000000e+00 
       2.11539864e-06       0.00000000e+00       2.11413370e-06 
       0.00000000e+00       0.00000000e+00       0.00000000e+00 
      -2.11539864e-06       0.00000000e+00      -1.19769162e-03 
      -1.11022302e-16       0.00000000e+00      -1.19557748e-03 
       2.11539864e-06       0.00000000e+00      -1.19346335e-03 
      -1.11022302e-16       0.00000000e+00      -1.19557748e-03 
      -1.49581272e-06       0.00000000e+00      -5.99283659e-04 
      -1.49581272e-06       0.00000000e+00      -5.99283659e-04 
       1.49581272e-06       0.00000000e+00      -5.96293823e-04 
       1.49581272e-06       0.00000000e+00      -5.96293823e-04 
       1.49581272e-06       0.00000000e+00      -1.19707240e-03 
       1.49581272e-06       0.00000000e+00      -1.19707240e-03 
      -1.49581272e-06       0.00000000e+00      -1.19408256e-03 
      -1.49581272e-06       0.00000000e+00      -1.19408256e-03 
       1.49581272e-06       0.00000000e+00      -1.49491827e-06 
       1.49581272e-06       0.00000000e+00      -1.49491827e-06 
      -1.49581272e-06       0.00000000e+00       1.49491827e-06 
      -1.49581272e-06       0.00000000e+00       1.49491827e-06 
       2.11539864e-06       0.00000000e+00      -1.19769162e-03 
       0.00000000e+00       0.00000000e+00      -1.19557748e-03 
      -2.11539864e-06       0.00000000e+00      -1.19346335e-03 
       0.00000000e+00       0.00000000e+00      -1.19557748e-03 
       2.11539864e-06       0.00000000e+00      -2.11413370e-06 
       0.00000000e+00       0.00000000e+00       0.00000000e+00 
      -2.11539864e-06       0.00000000e+00       2.11413370e-06 
       0.00000000e+00       0.00000000e+00       0.00000000e+00 
       1.49581272e-06       0.00000000e+00      -5.99283659e-04 
       1.49581272e-06       0.00000000e+00      -5.99283659e-04 
      -1.49581272e-06       0.00000000e+00      -5.96293823e-04 
      -1.49581272e-06       0.00000000e+00      -5.96293823e-04 

