# vtk DataFile Version 2.0
./output/static_plastic_von_mises_truss/static_plastic_von_mises_truss_0007.vtk
ASCII
DATASET UNSTRUCTURED_GRID

POINTS 40 float
       2.500300e-03      -3.535534e-03      -2.499700e-03 
       2.500300e-03       3.535534e-03      -2.499700e-03 
      -2.500300e-03       3.535534e-03       2.499700e-03 
      -2.500300e-03      -3.535534e-03       2.499700e-03 
       1.002500e+00      -3.535534e-03       9.977403e-01 
       1.002500e+00       3.535534e-03       9.977403e-01 
       9.974997e-01       3.535534e-03       1.002740e+00 
       9.974997e-01      -3.535534e-03       1.002740e+00 
       3.535958e-03       0.000000e+00      -3.535110e-03 
       0.000000e+00       5.000000e-03       0.000000e+00 
      -3.535958e-03       0.000000e+00       3.535110e-03 
       0.000000e+00      -5.000000e-03       0.000000e+00 
       1.003536e+00       0.000000e+00       9.967049e-01 
       1.000000e+00       5.000000e-03       1.000240e+00 
       9.964640e-01       0.000000e+00       1.003775e+00 
       1.000000e+00      -5.000000e-03       1.000240e+00 
       5.025003e-01      -3.535534e-03       4.976203e-01 
       5.025003e-01       3.535534e-03       4.976203e-01 
       4.974997e-01       3.535534e-03       5.026197e-01 
       4.974997e-01      -3.535534e-03       5.026197e-01 
       9.974997e-01      -3.535534e-03       9.977403e-01 
       9.974997e-01       3.535534e-03       9.977403e-01 
       1.002500e+00       3.535534e-03       1.002740e+00 
       1.002500e+00      -3.535534e-03       1.002740e+00 
       1.997500e+00      -3.535534e-03      -2.499700e-03 
       1.997500e+00       3.535534e-03      -2.499700e-03 
       2.002500e+00       3.535534e-03       2.499700e-03 
       2.002500e+00      -3.535534e-03       2.499700e-03 
       9.964640e-01       0.000000e+00       9.967049e-01 
       1.000000e+00       5.000000e-03       1.000240e+00 
       1.003536e+00       0.000000e+00       1.003775e+00 
       1.000000e+00      -5.000000e-03       1.000240e+00 
       1.996464e+00       0.000000e+00      -3.535110e-03 
       2.000000e+00       5.000000e-03       0.000000e+00 
       2.003536e+00       0.000000e+00       3.535110e-03 
       2.000000e+00      -5.000000e-03       0.000000e+00 
       1.497500e+00      -3.535534e-03       4.976203e-01 
       1.497500e+00       3.535534e-03       4.976203e-01 
       1.502500e+00       3.535534e-03       5.026197e-01 
       1.502500e+00      -3.535534e-03       5.026197e-01 

CELLS 2 42
20 0 1 2 3 4 5 6 7 8 9 10 11 12 13 14 15 16 17 18 19 
20 20 21 22 23 24 25 26 27 28 29 30 31 32 33 34 35 36 37 38 39 

CELL_TYPES 2
 25
 25

POINT_DATA        40 
VECTORS Displacements float
       2.99997415e-07       0.00000000e+00       3.00033418e-07 
       2.99997415e-07       0.00000000e+00       3.00033418e-07 
      -2.99997415e-07       0.00000000e+00      -3.00033418e-07 
      -2.99997415e-07       0.00000000e+00      -3.00033418e-07 
       2.99997415e-07       0.00000000e+00       2.40341175e-04 
       2.99997415e-07       0.00000000e+00       2.40341175e-04 
      -2.99997415e-07       0.00000000e+00       2.39741108e-04 
      -2.99997415e-07       0.00000000e+00       2.39741108e-04 
       4.24260412e-07       0.00000000e+00       4.24311329e-07 
       0.00000000e+00       0.00000000e+00       0.00000000e+00 
      -4.24260412e-07       0.00000000e+00      -4.24311329e-07 
       0.00000000e+00       0.00000000e+00       0.00000000e+00 
       4.24260413e-07       0.00000000e+00       2.40465453e-04 
       0.00000000e+00       0.00000000e+00       2.40041141e-04 
      -4.24260412e-07       0.00000000e+00       2.39616830e-04 
       0.00000000e+00       0.00000000e+00       2.40041141e-04 
       2.99997415e-07       0.00000000e+00       1.20320604e-04 
       2.99997415e-07       0.00000000e+00       1.20320604e-04 
      -2.99997415e-07       0.00000000e+00       1.19720537e-04 
      -2.99997415e-07       0.00000000e+00       1.19720537e-04 
      -2.99997415e-07       0.00000000e+00       2.40341175e-04 
      -2.99997415e-07       0.00000000e+00       2.40341175e-04 
       2.99997415e-07       0.00000000e+00       2.39741108e-04 
       2.99997415e-07       0.00000000e+00       2.39741108e-04 
      -2.99997415e-07       0.00000000e+00       3.00033418e-07 
      -2.99997415e-07       0.00000000e+00       3.00033418e-07 
       2.99997415e-07       0.00000000e+00      -3.00033418e-07 
       2.99997415e-07       0.00000000e+00      -3.00033418e-07 
      -4.24260412e-07       0.00000000e+00       2.40465453e-04 
       0.00000000e+00       0.00000000e+00       2.40041141e-04 
       4.24260413e-07       0.00000000e+00       2.39616830e-04 
       0.00000000e+00       0.00000000e+00       2.40041141e-04 
      -4.24260413e-07       0.00000000e+00       4.24311329e-07 
       0.00000000e+00       0.00000000e+00       0.00000000e+00 
       4.24260413e-07       0.00000000e+00      -4.24311329e-07 
       0.00000000e+00       0.00000000e+00       0.00000000e+00 
      -2.99997415e-07       0.00000000e+00       1.20320604e-04 
      -2.99997415e-07       0.00000000e+00       1.20320604e-04 
       2.99997415e-07       0.00000000e+00       1.19720537e-04 
       2.99997415e-07       0.00000000e+00       1.19720537e-04 

